ITEM: TIMESTEP
20000
ITEM: NUMBER OF ATOMS
10000
ITEM: BOX BOUNDS mm mm mm
-0.015 0.015
-0.015 0.015
-0.001 0.0554
ITEM: ATOMS id type x y z vx vy vz fx fy fz f_dragforce[1] f_dragforce[2] f_dragforce[3] radius 
1359 1 -0.001486 -0.0132648 0.000499785 6.04897e-06 3.45683e-06 3.64132e-07 8.45517e-09 1.68957e-09 3.10812e-10 1.35089e-08 3.73479e-08 6.35546e-07 0.0005 
2191 1 -4.5779e-05 -0.0133499 0.000499784 0.000474998 -1.58005e-06 2.06342e-08 4.2173e-09 5.15717e-10 -8.11294e-11 2.44211e-08 -1.02775e-08 4.5171e-07 0.0005 
637 1 -0.00304802 -0.0122426 0.000497592 4.14227e-06 1.41998e-06 2.22893e-06 1.91585e-10 1.91438e-09 9.24816e-12 -2.53285e-08 3.7242e-08 3.94404e-07 0.0005 
1496 1 -0.00207198 -0.0124544 0.000497459 1.70937e-06 2.81225e-06 2.461e-06 -8.55014e-11 1.08289e-09 3.35856e-09 1.29943e-09 4.86869e-08 4.57703e-07 0.0005 
502 1 -0.000773479 -0.0125208 0.00049721 2.99487e-06 7.16727e-06 2.54493e-06 -4.50988e-09 -6.29423e-09 -2.9446e-10 2.02475e-08 4.11457e-08 4.19174e-07 0.0005 
1195 1 -0.00705777 -0.0110976 0.000498838 2.68257e-06 1.83775e-06 -2.27152e-06 -4.36204e-09 1.25024e-09 1.99178e-09 -8.16416e-08 1.67108e-08 4.84213e-07 0.0005 
1356 1 -0.00631303 -0.0117636 0.000499175 -1.94777e-07 -1.32564e-06 1.28057e-06 6.93953e-10 -7.23629e-10 8.884e-10 -6.80599e-08 4.80731e-08 5.47256e-07 0.0005 
939 1 -0.00515049 -0.0116622 0.000499424 6.73144e-06 7.055e-06 5.85154e-06 1.76833e-09 1.44193e-08 -1.13678e-09 -4.97989e-08 3.92766e-08 4.09155e-07 0.0005 
1758 1 -0.00415051 -0.0116652 0.000499778 2.3238e-06 -3.95439e-06 1.61276e-06 -9.50385e-10 -3.17469e-09 2.73317e-10 -3.65998e-08 3.03376e-08 3.58871e-07 0.0005 
656 1 -0.00321833 -0.0112601 0.00049815 -1.19185e-06 1.52654e-06 4.40194e-06 2.43599e-09 -2.38119e-09 -2.69366e-10 -1.99075e-08 3.79559e-08 3.65634e-07 0.0005 
758 1 -0.00220812 -0.0114649 0.000498386 2.82649e-07 2.42438e-06 4.04219e-06 -1.4425e-09 -4.47792e-09 -2.6887e-09 -1.46662e-08 4.76722e-08 3.68729e-07 0.0005 
319 1 -0.00113265 -0.0115597 0.000499743 -0.000314308 0.000163307 4.10539e-07 2.32781e-08 1.57944e-09 -5.68692e-09 -6.92678e-09 4.66341e-08 3.71141e-07 0.0005 
511 1 -1.59418e-05 -0.0111189 0.000495914 7.72181e-06 1.00558e-06 3.11789e-06 -5.976e-09 6.48328e-10 -1.79116e-09 6.22058e-10 -7.98138e-09 3.14855e-07 0.0005 
1144 1 -0.00800337 -0.0106568 0.000499147 -1.48629e-05 3.11841e-06 -5.04542e-07 5.63998e-09 -3.13138e-09 -5.73199e-10 -1.09625e-07 -2.13468e-08 4.61584e-07 0.0005 
353 1 -0.00578749 -0.0108921 0.000499397 9.93437e-06 1.11059e-05 3.18746e-06 2.20233e-08 3.06304e-08 -1.31706e-08 -5.32988e-08 1.36254e-08 3.7445e-07 0.0005 
1818 1 -0.00393641 -0.0105681 0.000497343 6.53547e-06 9.88487e-06 4.47235e-06 2.07395e-08 2.10316e-08 -3.47081e-09 -2.2324e-08 9.77004e-09 3.64313e-07 0.0005 
1873 1 -0.00258526 -0.0104893 0.000499131 6.56757e-06 -4.21956e-07 2.45955e-06 -2.02801e-09 9.33226e-09 -2.35888e-09 -1.62189e-08 1.20625e-08 3.62679e-07 0.0005 
2211 1 -0.00075606 -0.0104479 0.000498011 2.09205e-06 -1.09758e-05 4.64092e-06 7.77162e-10 5.24432e-09 -3.05322e-09 -1.76986e-08 9.40458e-09 3.50082e-07 0.0005 
647 1 -0.00884565 -0.0100002 0.000499031 -1.04468e-05 9.70002e-06 1.70003e-06 6.48822e-09 -1.16251e-09 4.87656e-10 -9.41657e-08 -5.38232e-08 4.53169e-07 0.0005 
542 1 -0.00732991 -0.00991788 0.000498517 4.37358e-06 -5.13721e-06 1.42457e-06 7.61769e-09 4.00568e-09 9.33553e-09 -9.53549e-08 -6.59031e-08 3.50307e-07 0.0005 
1585 1 -0.00535219 -0.0099513 0.000497868 9.99435e-06 5.65351e-06 4.02186e-06 1.74599e-08 2.53502e-08 2.27977e-09 -2.91629e-08 -2.85955e-08 3.70572e-07 0.0005 
2142 1 -0.00325997 -0.00975385 0.000498577 5.47766e-06 2.70083e-06 2.46968e-06 -1.60715e-09 3.62234e-09 -2.98056e-09 -8.38292e-09 -3.62406e-08 3.49722e-07 0.0005 
2330 1 -0.00886783 -0.00899263 0.000496135 6.11414e-06 3.33555e-06 3.08565e-06 -3.59118e-11 3.37862e-10 1.92045e-09 -9.35171e-08 -8.90002e-08 3.33613e-07 0.0005 
733 1 -0.00681194 -0.00906308 0.000498365 1.62051e-05 -1.13694e-05 1.36339e-06 -8.55917e-09 1.60139e-08 3.73578e-09 -7.00206e-08 -7.47946e-08 3.73045e-07 0.0005 
1443 1 -0.00575878 -0.00889936 0.000498356 1.8561e-06 -2.43751e-06 3.699e-06 1.20516e-08 1.55359e-08 7.12482e-10 -4.00741e-08 -8.25156e-08 3.59399e-07 0.0005 
1221 1 -0.00476034 -0.00887449 0.000498477 4.36834e-06 2.60597e-06 8.69224e-06 1.26816e-08 1.45194e-08 -8.42785e-09 -2.02297e-08 -8.69391e-08 3.60563e-07 0.0005 
388 1 -0.00321908 -0.00875243 0.000499754 6.39654e-06 -3.97797e-07 6.94385e-06 -3.30949e-09 4.2039e-10 -5.10998e-10 -6.9899e-09 -6.51152e-08 3.49957e-07 0.0005 
823 1 -0.00236671 -0.00927523 0.000499766 3.14482e-05 -2.36428e-07 4.1512e-08 4.63366e-09 7.20268e-09 -1.14956e-08 -3.23437e-09 -5.79297e-08 3.42734e-07 0.0005 
714 1 -0.00108393 -0.00881322 0.000497889 -7.16916e-06 -1.7771e-05 4.90688e-06 6.6286e-09 2.40736e-08 1.10268e-09 -6.50414e-09 -8.29313e-08 3.26206e-07 0.0005 
462 1 -8.6714e-05 -0.0088685 0.000497738 -3.88254e-06 -8.56273e-06 7.17612e-06 -4.72227e-09 2.21097e-09 -1.31502e-08 -2.57499e-08 -5.49836e-08 3.04836e-07 0.0005 
529 1 -0.0102058 -0.00860735 0.000500042 -7.20986e-06 1.32805e-05 1.1079e-06 7.34128e-10 5.8071e-09 3.04512e-09 1.59227e-09 -1.18405e-07 4.88385e-07 0.0005 
359 1 -0.00933806 -0.00811245 0.000498074 4.0854e-06 1.86646e-06 -3.0839e-08 7.67312e-09 3.67979e-09 1.89192e-09 -8.10867e-08 -7.4004e-08 3.55267e-07 0.0005 
1505 1 -0.00808273 -0.00836663 0.000499658 3.95118e-05 -9.0116e-06 -4.44275e-06 -6.6955e-10 -5.80873e-09 -8.38763e-09 -9.69309e-08 -6.27137e-08 3.56922e-07 0.0005 
2252 1 -0.00613574 -0.00797385 0.000499276 1.51945e-06 -2.77871e-07 -5.91254e-07 2.20829e-08 2.459e-08 -8.4227e-09 -5.31493e-08 -5.34026e-08 3.81918e-07 0.0005 
2042 1 -0.00234009 -0.00827563 0.000499775 1.00207e-05 1.45709e-06 -2.00837e-06 1.88234e-09 -2.67968e-09 1.19419e-09 -4.15655e-09 -7.56357e-08 3.58047e-07 0.0005 
1539 1 -0.010836 -0.00780094 0.0004976 6.51625e-06 -8.89943e-06 2.43899e-07 5.53085e-09 -5.1922e-09 2.24004e-09 4.05629e-08 -9.95863e-08 5.6338e-07 0.0005 
986 1 -0.00812433 -0.00736769 0.000499629 -1.30165e-05 -2.06277e-06 2.83356e-06 2.75988e-08 -1.15726e-08 1.70549e-09 -1.25202e-07 -3.92128e-08 3.2497e-07 0.0005 
1847 1 -0.00709738 -0.00770384 0.000497945 4.20277e-06 -2.97642e-06 7.2311e-07 1.6553e-08 1.93022e-08 2.7387e-09 -8.43223e-08 -4.08189e-08 3.87027e-07 0.0005 
1447 1 -0.00561461 -0.00712039 0.000499403 1.93198e-06 -9.27626e-06 3.18407e-06 3.85349e-08 4.02523e-08 -4.62652e-10 -4.39628e-08 -3.09867e-08 3.69653e-07 0.0005 
1848 1 -0.00461838 -0.00724251 0.000497609 1.23275e-05 -1.24042e-05 1.76887e-06 2.23117e-08 2.73543e-08 -4.07112e-09 -4.23871e-08 -1.70716e-08 3.89449e-07 0.0005 
2417 1 -0.00359485 -0.00736384 0.000498834 -1.71912e-06 -1.68453e-06 3.3481e-06 1.14957e-08 1.68157e-08 1.77376e-09 -3.84111e-08 -3.52191e-08 3.74622e-07 0.0005 
1462 1 -0.00259772 -0.00730943 0.000497566 5.40049e-07 -6.85276e-06 4.56269e-06 1.48646e-08 4.37038e-08 2.30805e-09 -2.70882e-08 -6.66783e-08 3.5817e-07 0.0005 
46 1 -0.00132256 -0.00784278 0.000499782 -2.07446e-05 -1.55771e-05 7.11386e-06 1.71266e-08 3.25166e-08 -2.55272e-08 1.26985e-08 -1.58152e-07 3.94211e-07 0.0005 
1432 1 -0.00018259 -0.00787429 0.000498886 3.40511e-06 -7.96429e-06 7.61755e-06 3.72419e-10 8.9137e-09 -8.36655e-09 1.02242e-08 -9.57259e-08 3.3755e-07 0.0005 
2195 1 -0.0116014 -0.0066055 0.000497989 1.45016e-06 -2.41533e-07 -9.87948e-08 2.33727e-09 2.46346e-09 1.35374e-09 1.11679e-07 -3.93734e-08 6.43474e-07 0.0005 
1429 1 -0.0105966 -0.00683003 0.000499779 -2.58622e-06 8.19173e-07 1.05284e-06 -3.58711e-09 2.18907e-09 -3.48632e-10 4.66877e-08 -4.87013e-08 3.9145e-07 0.0005 
551 1 -0.00960141 -0.00692832 0.000497206 4.7457e-06 1.52761e-06 1.85178e-06 7.01476e-09 3.63572e-09 3.14976e-09 -3.55546e-08 -4.75709e-08 3.57936e-07 0.0005 
490 1 -0.00778742 -0.00635106 0.000498319 -6.89939e-06 4.48342e-07 2.23151e-06 1.29671e-08 7.34335e-09 9.12042e-09 -1.30078e-07 -2.26849e-08 3.45901e-07 0.0005 
1485 1 -0.00646852 -0.0065656 0.000499137 -2.11698e-06 -5.87827e-06 4.64514e-06 1.31712e-08 2.39605e-08 -2.84885e-09 -7.61436e-08 -2.46031e-08 3.70657e-07 0.0005 
74 1 -0.00405079 -0.00639839 0.000499516 -4.53236e-07 -4.90179e-06 -5.18615e-07 1.63032e-08 4.50775e-08 1.15966e-09 -8.83188e-09 -1.91033e-09 3.40136e-07 0.0005 
606 1 -0.0109846 -0.00581911 0.000499852 8.64707e-07 -1.35334e-07 -3.25215e-07 3.7627e-09 2.25355e-09 8.03701e-09 8.8993e-08 -2.15343e-08 4.28929e-07 0.0005 
1293 1 -0.0100025 -0.00600416 0.000498314 -1.45204e-07 -4.77673e-06 2.93033e-06 1.00417e-08 3.51721e-09 3.17718e-09 6.48135e-08 -1.42948e-08 3.72393e-07 0.0005 
1263 1 -0.00881365 -0.00631237 0.000499779 -0.00020414 0.000262492 -4.20667e-07 8.09637e-09 3.16224e-09 -1.62813e-09 -7.22755e-08 -4.11659e-08 3.32479e-07 0.0005 
1248 1 -0.0070186 -0.00571248 0.000499127 -1.33022e-07 -1.89276e-06 8.0729e-06 8.30653e-09 9.52469e-09 -4.15553e-09 -1.10992e-07 -1.12472e-08 3.56299e-07 0.0005 
1101 1 -0.0056048 -0.00601435 0.00049741 -2.59987e-06 -9.03105e-06 7.07556e-06 1.29572e-08 2.64315e-08 -3.94722e-09 -4.52753e-08 -1.38498e-08 3.70192e-07 0.0005 
817 1 -0.00467714 -0.00561942 0.000498559 -4.77367e-06 -1.21429e-05 5.18435e-06 1.73012e-08 4.95876e-08 -6.45897e-09 -1.47045e-08 1.22131e-08 3.40626e-07 0.0005 
1969 1 -0.00335382 -0.00559115 0.000497954 -7.95778e-06 -1.17787e-05 2.16374e-06 1.29721e-08 1.98505e-08 8.24425e-10 -9.78088e-08 -2.77544e-08 3.29847e-07 0.0005 
266 1 -0.00225466 -0.00609258 0.000497274 9.44318e-07 -1.22443e-06 4.19444e-06 1.3501e-08 3.23559e-08 3.13941e-09 -1.24071e-07 -7.77593e-08 3.24538e-07 0.0005 
1477 1 -0.000920944 -0.0062689 0.000497553 2.08737e-06 -1.21314e-05 8.65223e-07 1.59519e-08 3.60855e-08 2.63076e-09 -3.02645e-09 -1.10467e-07 3.9096e-07 0.0005 
740 1 -8.94981e-05 -0.00559031 0.000498805 7.08322e-06 -1.301e-05 2.85224e-06 -1.61713e-09 5.14797e-08 7.58056e-10 7.43173e-08 -6.1841e-08 3.16912e-07 0.0005 
1091 1 -0.0121736 -0.00548392 0.000497633 6.73094e-07 -4.6034e-07 2.79275e-07 1.13105e-09 4.46371e-09 3.17748e-09 8.66986e-08 -1.91849e-08 6.65873e-07 0.0005 
900 1 -0.011366 -0.00489514 0.000499659 1.44454e-06 -8.39646e-07 -6.84126e-07 3.48832e-09 9.32544e-09 1.14967e-08 5.59842e-08 -2.1886e-08 3.59354e-07 0.0005 
1315 1 -0.0103099 -0.00484001 0.00049716 -7.39767e-07 -2.39917e-06 2.15152e-06 7.32527e-09 1.03879e-08 4.67195e-09 4.82721e-08 -1.52743e-08 3.64909e-07 0.0005 
53 1 -0.00868148 -0.00528414 0.000496937 7.6672e-07 -2.98814e-06 1.58758e-06 1.62258e-08 6.32652e-09 -2.76273e-10 -4.05767e-08 -5.49211e-08 3.43029e-07 0.0005 
1403 1 -0.00564697 -0.00494991 0.000499635 -9.31812e-06 -1.23149e-05 4.90434e-06 2.26794e-08 3.51741e-08 6.31178e-09 -5.14077e-08 1.25932e-08 3.4689e-07 0.0005 
2181 1 -0.00394892 -0.00478923 0.000498164 -3.52167e-05 -3.33247e-05 8.78264e-06 7.08109e-09 4.94958e-09 -8.61479e-09 -1.00149e-07 -8.82966e-09 3.27738e-07 0.0005 
152 1 -0.00257442 -0.00496718 0.000499704 1.18049e-07 -1.60973e-05 -1.13385e-06 4.57176e-09 1.11882e-08 -7.20277e-10 -1.07162e-07 -2.099e-08 3.74108e-07 0.0005 
262 1 -0.000969136 -0.00511506 0.000499315 5.99029e-06 -7.8986e-06 5.01652e-06 -2.07057e-09 3.12544e-08 -7.89295e-09 -2.79776e-10 -2.01138e-08 3.91052e-07 0.0005 
890 1 -0.0125488 -0.00455801 0.000498972 2.25588e-06 -3.38883e-07 1.5773e-08 6.08985e-09 3.3239e-09 -1.89399e-09 3.49465e-08 -1.33366e-08 6.08105e-07 0.0005 
2 1 -0.0108925 -0.00401486 0.000499651 6.37019e-06 -1.03226e-06 -1.27831e-06 1.59553e-08 1.35575e-10 1.13764e-08 1.58351e-08 -2.92873e-08 3.35561e-07 0.0005 
12 1 -0.00939874 -0.00442978 0.000499403 -2.71018e-06 3.75689e-06 2.38444e-06 7.96981e-09 6.78684e-09 -6.52911e-09 -2.16997e-08 -3.73325e-08 3.50926e-07 0.0005 
1415 1 -0.00839874 -0.00432659 0.000498251 -9.21474e-06 -2.11474e-06 1.18408e-06 2.34466e-08 1.02138e-08 -2.09401e-09 -3.59939e-08 -4.75491e-08 3.4466e-07 0.0005 
93 1 -0.00728957 -0.00463178 0.000499226 -1.34178e-05 -4.04969e-06 5.20832e-06 3.86562e-08 3.64855e-08 -7.86994e-09 -4.77758e-08 -4.58354e-08 3.51442e-07 0.0005 
2064 1 -0.00595723 -0.00400022 0.000496674 -9.8459e-06 -1.35049e-05 4.78825e-06 6.1552e-08 3.36549e-08 -3.48552e-09 -4.45852e-08 2.50496e-08 3.38416e-07 0.0005 
1452 1 -0.00495724 -0.00399839 0.000498902 -1.9013e-05 -4.00484e-05 2.24402e-06 -2.74375e-08 1.25871e-08 7.5557e-09 -6.4724e-08 9.86718e-09 3.31042e-07 0.0005 
1459 1 -0.00316943 -0.00416471 0.000497624 -2.39596e-05 -3.70451e-05 3.56655e-06 -1.31717e-08 1.11978e-08 -3.31353e-09 -1.0752e-07 4.67164e-09 3.79025e-07 0.0005 
1507 1 -0.00173643 -0.00442386 0.000499916 2.50366e-06 -2.14858e-05 9.86911e-07 -1.05416e-08 3.80288e-08 -9.0697e-09 -5.78367e-08 1.52822e-08 3.90038e-07 0.0005 
2217 1 -0.000780906 -0.00413337 0.000498207 -1.19973e-06 -1.37525e-05 8.45018e-06 -3.83719e-09 2.28536e-08 -1.44734e-08 2.98769e-08 6.40057e-08 3.90304e-07 0.0005 
982 1 -0.0128875 -0.0034857 0.000497912 2.7593e-06 -4.63548e-06 -1.31696e-08 -1.16257e-10 2.49144e-09 -1.44363e-09 2.00425e-08 6.88557e-09 6.01157e-07 0.0005 
1544 1 -0.0100044 -0.00355523 0.000499779 6.26636e-05 -0.000123166 2.80102e-07 4.11802e-08 1.01699e-08 -7.42744e-09 -2.38067e-08 -2.18665e-08 3.51238e-07 0.0005 
2007 1 -0.00898733 -0.00351905 0.00050029 -1.14244e-06 3.64207e-06 5.46565e-06 1.94378e-08 3.85508e-09 2.78082e-09 -6.53813e-08 -2.29094e-08 3.69572e-07 0.0005 
1617 1 -0.00781955 -0.00351133 0.000498301 -5.97578e-06 4.98441e-06 2.58623e-06 2.86237e-08 1.95287e-08 1.55453e-09 -2.69466e-08 -2.1598e-08 3.67409e-07 0.0005 
230 1 -0.00403898 -0.00359644 0.000498191 -2.70708e-05 -2.46921e-05 8.11243e-06 -1.65739e-08 2.67916e-08 -2.88645e-09 -7.88691e-08 1.49724e-08 3.28374e-07 0.0005 
1067 1 -0.00238656 -0.00354293 0.000497783 -7.5808e-06 -3.30789e-05 7.31674e-06 -1.19263e-08 -5.82159e-09 1.79919e-10 -8.93012e-08 3.32355e-08 3.58499e-07 0.0005 
9 1 -0.0130612 -0.00247882 0.000499358 7.48315e-07 -4.62857e-06 -9.34017e-09 8.89005e-09 -7.39335e-09 4.8297e-09 2.99482e-08 2.91349e-08 6.11155e-07 0.0005 
2406 1 -0.0116633 -0.00306555 0.00049765 2.66202e-06 -9.55061e-07 1.46897e-06 1.83171e-08 1.81203e-09 5.31829e-09 2.13014e-08 1.43426e-09 3.5419e-07 0.0005 
178 1 -0.0095333 -0.00267315 0.000499781 -2.32435e-05 -8.50398e-05 -1.20232e-06 2.67942e-08 -3.73276e-09 -9.58447e-09 -5.50209e-08 -2.68594e-09 3.6941e-07 0.0005 
1238 1 -0.00852927 -0.00263123 0.000498497 -4.47615e-06 5.48449e-06 3.84979e-06 1.57929e-08 5.10723e-09 7.94359e-09 -4.4288e-08 -7.13143e-10 3.70632e-07 0.0005 
1610 1 -0.00706058 -0.00272638 0.000499779 0.000192672 0.000143699 3.37278e-08 -1.15249e-08 -1.4648e-09 -4.04763e-11 -9.17879e-09 3.81028e-09 3.59145e-07 0.0005 
391 1 -0.00605752 -0.00288309 0.000498977 5.3663e-05 1.99581e-05 4.61984e-06 3.22948e-08 9.44585e-09 -5.16942e-09 1.14288e-08 3.47499e-09 3.1575e-07 0.0005 
1178 1 -0.00506464 -0.00300263 0.000499778 3.83697e-05 -1.14743e-05 -1.2872e-06 -1.60088e-08 1.14511e-10 6.91454e-10 -2.02125e-08 1.5488e-08 3.24799e-07 0.0005 
1798 1 -0.00415456 -0.002588 0.000499721 -3.79441e-05 -4.56762e-05 3.19748e-06 6.30575e-08 3.07532e-08 -1.48934e-09 -2.87065e-08 2.27337e-08 3.30139e-07 0.0005 
619 1 -0.003231 -0.0030074 0.00049975 -1.59448e-05 -4.31697e-05 2.98042e-06 3.69621e-08 6.46415e-08 -7.13852e-09 -8.19959e-08 4.0455e-08 3.17659e-07 0.0005 
38 1 -0.00214925 -0.00250789 0.000499316 -0.000602051 -0.000137046 2.16558e-07 2.77035e-08 3.01148e-08 -1.98696e-08 -8.29734e-08 4.71584e-08 3.13356e-07 0.0005 
736 1 -0.000791155 -0.00295641 0.000499728 -7.56265e-06 6.71203e-06 9.41991e-06 -9.08448e-09 3.05864e-08 -1.81102e-11 -3.68304e-08 2.44258e-08 3.72963e-07 0.0005 
186 1 -0.0124292 -0.00170434 0.000498059 -1.5143e-06 -2.54469e-06 1.68263e-06 7.07218e-09 -3.04422e-09 5.8415e-09 4.82804e-08 4.50523e-08 4.09217e-07 0.0005 
459 1 -0.0114537 -0.00208913 0.000499208 -1.2867e-06 -3.35393e-06 9.90802e-07 3.22483e-08 2.74233e-10 1.81407e-09 4.66811e-08 3.79935e-08 3.63896e-07 0.0005 
866 1 -0.0104732 -0.00233182 0.000499301 5.8419e-06 -3.9741e-06 1.6569e-06 1.65635e-08 7.8268e-09 -2.4582e-09 4.51536e-09 8.81345e-09 3.40913e-07 0.0005 
1411 1 -0.00937867 -0.00168197 0.000498774 -1.64953e-05 -2.45507e-06 3.68915e-06 1.50053e-08 2.53347e-09 6.85732e-09 -6.87857e-09 6.57575e-09 3.1549e-07 0.0005 
1278 1 -0.00775242 -0.00200312 0.000499411 -1.23599e-05 1.09058e-05 9.06451e-06 1.56461e-08 2.81491e-09 -4.5752e-09 -2.47584e-08 1.88275e-08 3.62476e-07 0.0005 
62 1 -0.00602151 -0.00187685 0.000499767 0.000540225 2.42574e-05 -1.94778e-06 -1.87561e-08 -2.16144e-08 1.36537e-09 -1.44479e-09 5.51068e-09 3.21443e-07 0.0005 
1669 1 -0.00496863 -0.00200725 0.000499776 -1.30819e-05 -7.05554e-06 -9.42429e-08 3.77585e-08 -1.36974e-08 1.29433e-08 -1.44457e-08 3.5809e-09 3.18155e-07 0.0005 
695 1 -0.00125726 -0.00198018 0.000498631 6.0156e-06 -2.24652e-05 1.66117e-06 5.33727e-08 5.12356e-08 2.74339e-09 -6.82543e-08 1.1428e-08 3.64322e-07 0.0005 
1530 1 -0.013293 -0.00120285 0.000499473 7.61015e-08 9.3093e-07 -2.63392e-07 1.53473e-08 1.06998e-08 7.03676e-09 4.03083e-08 5.94916e-08 6.44978e-07 0.0005 
1654 1 -0.0107159 -0.00136279 0.00049871 7.67712e-07 -4.52132e-06 4.11169e-06 1.67124e-08 8.40002e-09 -8.4512e-09 3.99468e-08 5.41506e-08 3.7063e-07 0.0005 
299 1 -0.00770716 -0.000989638 0.000499779 -3.53478e-05 4.16698e-05 -7.77894e-07 -1.79408e-09 1.06816e-08 -2.43168e-09 -5.20455e-08 6.08786e-08 3.34786e-07 0.0005 
98 1 -0.00667982 -0.00106263 0.00049815 -7.85943e-06 -2.76337e-06 5.6888e-06 1.24452e-08 3.6211e-09 -9.61823e-09 -2.73898e-08 2.40544e-08 3.3268e-07 0.0005 
1060 1 -0.00391582 -0.00157359 0.00049793 -4.59767e-05 -2.40824e-05 3.13392e-06 -4.14649e-09 1.64564e-08 1.211e-08 -4.97323e-08 -2.10104e-08 2.93136e-07 0.0005 
781 1 -0.00215001 -0.00129895 0.000499779 -0.000104419 0.000187656 -2.07102e-08 -9.06733e-08 -3.85692e-08 1.53062e-10 -1.06857e-07 -3.17181e-08 3.01463e-07 0.0005 
1955 1 -0.000349099 -0.00148578 0.000499217 9.27836e-06 4.53998e-06 3.3135e-06 1.45465e-08 2.6596e-08 -9.53784e-09 -2.75506e-08 7.21648e-09 3.29411e-07 0.0005 
1675 1 -0.0124415 -0.000619911 0.000499054 1.75761e-06 -1.86411e-06 -1.61102e-06 -8.12202e-09 -9.80911e-09 -1.49148e-09 4.13242e-08 7.44563e-08 4.0922e-07 0.0005 
2125 1 -0.0115118 -0.000118826 0.000497325 -6.22904e-06 -5.95428e-06 6.75473e-07 1.101e-08 3.11202e-10 -1.19386e-09 -1.22378e-08 9.0116e-08 3.98032e-07 0.0005 
2169 1 -0.00953575 -0.000695242 0.000499204 -7.63828e-06 1.15962e-06 3.22286e-07 2.53946e-08 2.20269e-10 -8.71201e-10 2.33497e-10 1.7808e-08 3.11456e-07 0.0005 
6577 1 -0.00859393 -0.000363816 0.000497435 -9.76998e-06 2.77994e-06 5.22737e-06 3.36353e-08 -2.24197e-08 -7.55381e-09 -3.4133e-08 3.84071e-08 3.21809e-07 0.0005 
6638 1 -0.00684238 -7.77053e-05 0.000498427 -1.28251e-05 -2.92192e-06 4.02288e-06 3.92107e-08 -1.56449e-09 7.16169e-09 -5.03266e-08 4.32804e-08 3.13635e-07 0.0005 
1600 1 -0.00577218 -0.000646014 0.000497688 -5.73836e-06 -1.2562e-06 9.45588e-06 2.66665e-08 -2.5096e-08 -9.55572e-09 -3.61086e-08 5.37561e-09 3.32335e-07 0.0005 
108 1 -0.00326521 -0.000749473 0.00049756 -9.96879e-06 -7.23156e-06 3.57885e-06 2.78876e-08 2.74239e-08 -9.99104e-10 -8.79679e-08 -4.42781e-08 2.94469e-07 0.0005 
288 1 -0.00178538 -0.000343396 0.000498716 -1.03613e-05 -1.5243e-05 2.53691e-06 3.05023e-08 3.363e-08 8.42968e-09 -5.91483e-08 -2.78149e-08 3.10602e-07 0.0005 
1934 1 -0.000393639 -0.000486797 0.000499308 4.662e-06 8.72521e-07 6.76146e-06 1.98425e-08 3.94995e-08 -1.51638e-09 -9.31019e-09 1.62953e-08 3.21917e-07 0.0005 
1180 1 -0.00374215 -0.0128169 0.000925999 9.6184e-07 1.47932e-06 1.87708e-06 3.64649e-09 1.58104e-09 6.48121e-09 -3.9204e-08 2.43138e-08 7.44418e-07 0.0005 
1047 1 -0.00271701 -0.0130746 0.000936413 5.77149e-07 1.04072e-06 3.60413e-06 6.32731e-10 3.88126e-09 4.03046e-09 -1.72431e-08 3.15126e-08 8.26723e-07 0.0005 
1971 1 -0.000135228 -0.0126756 0.00124796 6.18667e-06 9.66205e-06 6.13296e-07 4.80476e-09 -4.22325e-09 -5.23128e-09 5.66418e-09 -1.516e-08 7.07867e-07 0.0005 
2053 1 -0.00467526 -0.0125049 0.000750327 -4.19201e-06 -6.59093e-07 4.41699e-06 1.09741e-09 8.63727e-09 1.13974e-08 -4.95209e-08 3.39529e-08 6.90632e-07 0.0005 
848 1 -0.00142135 -0.0124665 0.00125284 8.35374e-07 2.38301e-06 6.3657e-06 2.85537e-09 -4.50409e-09 1.10152e-09 1.09147e-08 5.14913e-08 9.8856e-07 0.0005 
427 1 -0.00477489 -0.0110334 0.00117977 1.16315e-05 1.20445e-05 -4.2149e-06 1.93812e-08 3.22952e-08 -1.52019e-08 -2.96087e-08 1.65308e-08 7.89823e-07 0.0005 
2081 1 -0.00166529 -0.0106907 0.000829086 2.31461e-06 -8.17725e-06 7.8774e-06 -1.67805e-10 8.54114e-09 -1.71248e-08 -1.85997e-08 2.65378e-08 5.84329e-07 0.0005 
1375 1 -0.00811325 -0.00947668 0.000930911 4.10113e-06 -6.87995e-06 3.38839e-06 4.71517e-09 8.46754e-09 2.98753e-09 -1.10236e-07 -9.34999e-08 6.47345e-07 0.0005 
1658 1 -0.00634327 -0.0100624 0.000540306 9.00936e-06 1.46789e-05 3.45075e-06 1.37984e-08 2.61181e-08 1.21006e-08 -5.67978e-08 -3.27306e-08 4.02315e-07 0.0005 
110 1 -0.00455702 -0.0100618 0.0010889 9.34118e-06 1.26337e-05 1.38255e-05 2.59049e-08 2.47364e-08 -8.22733e-09 -3.16023e-08 -2.15782e-08 7.29741e-07 0.0005 
1487 1 -0.00223843 -0.00992704 0.00124715 9.78843e-07 -1.22885e-05 2.38611e-05 2.83944e-10 3.97342e-08 -2.12156e-08 -2.85752e-08 -3.67352e-08 7.86849e-07 0.0005 
2090 1 -0.00143905 -0.00973402 0.000651953 1.36365e-06 -1.85274e-05 -2.13332e-05 -2.5358e-09 2.2474e-08 2.83031e-08 -1.6969e-08 -3.47402e-08 4.04748e-07 0.0005 
2461 1 -0.00958878 -0.00929255 0.00111384 4.97384e-06 -3.73174e-06 2.79427e-06 -2.80629e-09 1.50019e-09 -1.32405e-09 -4.63695e-08 -9.07145e-08 8.06475e-07 0.0005 
1750 1 -0.00397615 -0.00925648 0.000985179 1.63065e-05 9.68382e-06 9.84948e-06 1.42483e-08 3.56352e-08 -6.2737e-09 -9.00247e-09 -7.23088e-08 6.9407e-07 0.0005 
243 1 -0.00695202 -0.00838913 0.00122303 3.86234e-05 -9.85203e-06 4.12246e-06 -1.21939e-08 2.21015e-08 6.30731e-10 -6.99802e-08 -4.9335e-08 1.071e-06 0.0005 
948 1 -0.00518034 -0.00801554 0.000788472 -3.28174e-06 -2.19935e-06 -2.15923e-06 2.70016e-08 2.34431e-08 -6.90382e-09 -4.20654e-08 -4.95071e-08 5.88469e-07 0.0005 
793 1 -0.00403684 -0.0082278 0.000735891 -2.34039e-06 6.3247e-06 2.61327e-06 6.32859e-09 2.06483e-08 -6.11753e-09 -3.30813e-08 -4.82692e-08 4.92677e-07 0.0005 
1694 1 -0.00170497 -0.00853382 0.00122771 -1.72991e-05 -3.92767e-05 7.30669e-06 6.34264e-09 5.07794e-08 1.23728e-09 -1.73304e-08 -9.27175e-08 7.85628e-07 0.0005 
842 1 -0.010023 -0.00764369 0.00105151 4.55738e-06 -4.07171e-07 1.2256e-06 9.36455e-09 -3.38886e-09 5.99817e-09 -3.3616e-08 -8.99317e-08 7.25609e-07 0.0005 
239 1 -0.00901241 -0.00741695 0.00113808 -8.16223e-07 -5.23525e-07 5.84882e-06 3.02743e-08 1.75973e-08 -5.9773e-09 -1.16156e-07 -5.56746e-08 7.86494e-07 0.0005 
13 1 -0.00305485 -0.00787105 0.00118394 3.675e-05 -6.46075e-07 3.39112e-05 2.82317e-08 4.98143e-08 -7.54355e-11 -1.93883e-08 -5.42737e-08 8.19802e-07 0.0005 
1059 1 -0.00717584 -0.00674336 0.00118201 -8.57588e-06 -3.72948e-06 5.82862e-06 3.12345e-08 2.72442e-08 1.52508e-08 -1.24604e-07 -2.81251e-08 8.05458e-07 0.0005 
830 1 -0.00488374 -0.00642716 0.00104938 2.19541e-08 -2.28567e-05 2.63288e-06 2.92945e-08 6.25361e-08 4.98716e-09 -1.46862e-08 -1.6677e-08 7.02058e-07 0.0005 
515 1 -0.00310687 -0.00650793 0.000805815 -4.19929e-07 -8.59591e-06 6.66814e-06 1.10793e-08 3.93953e-08 -6.79737e-09 -1.00136e-07 -5.37401e-08 5.14178e-07 0.0005 
2336 1 -0.00168323 -0.00691172 0.000542339 1.43292e-06 -9.80667e-06 2.51286e-06 1.68214e-08 3.3362e-08 4.21373e-09 -3.84272e-08 -1.08006e-07 3.51185e-07 0.0005 
2421 1 -0.000538803 -0.00706787 0.000968497 -3.02364e-05 -1.90673e-05 -7.18446e-06 1.30212e-08 3.35454e-08 2.62996e-08 1.64702e-08 -1.40689e-07 7.15511e-07 0.0005 
1645 1 -0.00625359 -0.00560215 0.00113185 -2.9425e-06 -7.81052e-06 1.5073e-05 1.57347e-08 3.57922e-08 -1.95255e-08 -5.55407e-08 -1.67995e-08 8.02402e-07 0.0005 
100 1 -0.00401331 -0.00569419 0.00124077 -5.13538e-06 -2.78158e-05 6.39402e-06 9.70207e-09 7.14043e-08 -2.43447e-09 -1.5257e-08 3.91342e-10 8.08827e-07 0.0005 
2208 1 -0.00152693 -0.00571772 0.00106827 7.66072e-06 -1.46158e-05 8.18805e-06 7.7106e-09 4.08944e-08 -1.34186e-08 -5.85498e-08 -7.34825e-08 7.58241e-07 0.0005 
1899 1 -0.010398 -0.00547993 0.00125596 1.4906e-06 -2.92146e-06 6.13188e-06 2.13916e-08 1.10197e-08 5.94999e-09 8.47753e-08 -8.3392e-09 9.10913e-07 0.0005 
220 1 -0.00940772 -0.00551933 0.0011363 2.09439e-06 -4.20247e-06 7.15972e-06 2.08793e-08 1.04569e-08 -2.0872e-09 1.94076e-08 -3.62926e-08 7.99438e-07 0.0005 
1211 1 -0.00785099 -0.0054944 0.0010074 -5.44441e-07 -3.7713e-07 1.04839e-05 2.04849e-08 1.70954e-08 -2.05049e-09 -8.19583e-08 -4.25144e-08 6.6239e-07 0.0005 
565 1 -0.00328684 -0.00481823 0.00124559 -4.99696e-05 -3.8662e-05 3.04613e-05 -3.84956e-09 3.32226e-08 -1.49957e-08 -9.49791e-08 -1.9373e-08 8.20885e-07 0.0005 
2300 1 -0.0118219 -0.00398032 0.000866454 7.03998e-06 -2.70229e-06 1.10471e-06 8.68331e-09 1.1386e-08 7.259e-09 2.25248e-08 -1.16907e-08 6.44255e-07 0.0005 
1986 1 -0.00647182 -0.00463006 0.00107428 -1.72684e-05 -5.78459e-06 1.44773e-05 5.4012e-08 4.43536e-08 -1.27657e-08 -5.92821e-08 4.77807e-09 7.16924e-07 0.0005 
1236 1 -0.00459722 -0.00458636 0.00122912 -3.08156e-05 -5.15641e-05 2.43832e-05 6.28925e-09 3.61391e-11 -1.13893e-08 -9.2319e-08 -1.18849e-08 7.92242e-07 0.0005 
483 1 -0.00250245 -0.00419908 0.00124001 -3.9374e-05 -4.41972e-05 1.51254e-05 -3.91356e-09 2.47037e-08 1.49095e-08 -1.22154e-07 -2.28696e-09 9.31161e-07 0.0005 
696 1 -0.00687624 -0.00370992 0.000762258 -6.17033e-06 8.07412e-06 -5.31119e-06 5.82612e-08 2.32958e-08 -2.03692e-08 -3.52866e-08 -1.34897e-08 5.02276e-07 0.0005 
704 1 -0.00147851 -0.00355142 0.000915396 -1.87534e-06 -1.3803e-05 1.66554e-05 -5.01188e-09 3.33028e-08 -1.8701e-10 -3.56228e-08 3.17764e-08 6.27303e-07 0.0005 
2160 1 -7.59777e-05 -0.00356054 0.000911873 -5.91184e-06 -1.66564e-05 3.25012e-05 -1.31498e-08 2.07095e-08 1.38536e-08 1.9229e-09 8.39515e-09 5.91856e-07 0.0005 
532 1 -0.0107951 -0.0031447 0.000981893 -1.81926e-06 -9.56002e-07 8.65877e-06 2.48519e-08 2.33711e-09 -9.34663e-09 -5.04374e-09 -2.50651e-08 6.662e-07 0.0005 
1201 1 -0.00783847 -0.00280194 0.00120086 -5.12145e-06 8.99023e-07 8.1865e-06 5.15152e-08 1.85402e-08 2.91058e-09 -1.82383e-08 7.10574e-10 8.87228e-07 0.0005 
2224 1 -0.00855751 -0.00180217 0.00105552 -1.99668e-05 -1.73027e-06 7.40119e-06 2.48733e-08 1.45556e-08 7.78061e-09 -3.57571e-08 1.64774e-08 6.69689e-07 0.0005 
1596 1 -0.00697475 -0.0018065 0.00109426 -5.11333e-06 -6.97422e-06 1.25176e-05 2.84768e-08 9.59306e-09 -2.2357e-08 -3.50814e-08 2.15116e-08 6.85864e-07 0.0005 
2261 1 -0.00298247 -0.00176642 0.000797704 -8.05042e-05 -9.17595e-05 4.25276e-05 7.44143e-09 -8.26868e-08 -6.75693e-08 -8.943e-08 1.09494e-09 4.86505e-07 0.0005 
78 1 -0.0116487 -0.00115309 0.000788457 -1.44981e-06 -6.5109e-06 3.35154e-07 1.69442e-08 3.66354e-09 3.63862e-09 6.4577e-08 7.30958e-08 5.98695e-07 0.0005 
367 1 -0.0100636 -0.00113945 0.00122252 -4.74414e-06 1.08948e-05 7.38571e-06 1.64243e-08 -3.09882e-09 -8.17295e-09 3.5656e-08 3.09825e-08 8.11801e-07 0.0005 
5 1 -0.00506774 -0.00114577 0.000997752 -1.32227e-05 -2.44896e-05 9.10726e-06 5.42429e-08 3.32835e-08 2.63332e-08 -3.05287e-08 -2.46487e-08 6.00407e-07 0.0005 
1357 1 -0.00117459 -0.00104991 0.000852914 -2.70873e-06 -1.56888e-05 9.3003e-06 3.8571e-08 4.60392e-08 -1.07049e-08 -6.77732e-08 -1.596e-08 5.47748e-07 0.0005 
967 1 -0.0133497 -0.000207427 0.000558373 -3.27857e-07 1.33143e-07 -3.36801e-06 8.5895e-11 5.22843e-09 -5.64181e-09 4.0614e-08 9.37738e-08 6.71736e-07 0.0005 
2095 1 -0.0104803 -0.000401965 0.000633562 -9.71893e-06 -4.30141e-07 4.15159e-06 4.17107e-08 1.93821e-09 -8.10767e-09 4.9859e-11 6.41889e-08 4.35849e-07 0.0005 
42 1 -0.00418509 -0.000692944 0.000884836 -1.64426e-05 -1.92734e-05 2.64674e-06 4.97947e-08 5.14001e-08 1.6063e-08 -4.46574e-08 -5.90189e-08 4.97671e-07 0.0005 
548 1 -0.00252488 -0.000550331 0.00113742 -1.74528e-05 -4.13866e-06 3.33002e-06 3.04522e-08 2.36043e-08 1.17521e-08 -9.79525e-08 -4.63962e-08 7.3626e-07 0.0005 
805 1 -0.00292445 -0.0130095 0.00190796 -1.47149e-06 -8.1407e-06 1.0064e-05 4.6174e-09 -3.4489e-09 5.75677e-09 -4.2941e-08 1.28144e-08 1.29616e-06 0.0005 
643 1 -0.00199096 -0.0132029 0.00161135 -1.50367e-06 4.50392e-07 1.11736e-06 2.74754e-09 3.52514e-10 4.18773e-09 -9.40392e-09 3.19359e-08 1.19787e-06 0.0005 
1951 1 -0.000905476 -0.01332 0.00131215 -2.16146e-06 6.79452e-07 5.97053e-06 -1.81963e-09 -2.05177e-09 3.70536e-09 2.62662e-09 2.80557e-08 1.01767e-06 0.0005 
2416 1 -0.000178714 -0.0133488 0.00199799 4.67193e-07 -1.26966e-06 3.30385e-06 4.39914e-09 2.59272e-09 2.92799e-09 -4.66762e-08 5.33942e-09 1.24354e-06 0.0005 
2017 1 -0.00571058 -0.0119634 0.00127067 -4.25451e-06 2.07071e-05 1.77548e-05 1.59698e-08 -1.00362e-08 -1.40158e-08 -5.57915e-08 4.7423e-08 9.39437e-07 0.0005 
527 1 -0.00435013 -0.0126221 0.00169434 9.34957e-07 -3.38774e-06 1.49707e-06 1.51076e-08 1.56842e-09 1.02916e-08 -3.74696e-08 2.15379e-08 1.13096e-06 0.0005 
2327 1 -0.00336457 -0.0120806 0.00148498 1.52839e-06 -3.66138e-06 8.03111e-06 8.73961e-09 -2.02304e-09 1.64742e-08 -4.24362e-08 1.66226e-08 1.0185e-06 0.0005 
886 1 -0.00238592 -0.0122717 0.00142893 9.40721e-07 2.45847e-07 3.61548e-06 6.90296e-09 5.38733e-09 1.178e-08 -2.23475e-08 2.27135e-08 1.00171e-06 0.0005 
125 1 -0.000677091 -0.0119501 0.0016694 3.01586e-06 2.5525e-06 9.92871e-06 3.14111e-09 -5.6452e-09 -6.18674e-09 -3.29139e-08 3.68597e-08 1.12875e-06 0.0005 
2456 1 -0.00683 -0.0114711 0.00139682 5.18122e-06 -5.2234e-06 -9.57424e-06 -7.34809e-09 1.54718e-08 8.86574e-09 -6.36128e-08 4.83531e-08 9.91672e-07 0.0005 
461 1 -0.00542641 -0.0112561 0.00192832 6.27685e-06 -1.46435e-05 2.78784e-05 1.99624e-08 2.62094e-08 -6.92098e-09 -3.82614e-08 2.88871e-08 1.26812e-06 0.0005 
2263 1 -0.00451857 -0.0116722 0.00195404 -3.28544e-08 -2.63605e-05 6.57473e-05 1.95475e-08 2.18876e-08 -3.60439e-08 -2.95594e-08 1.96444e-08 1.26965e-06 0.0005 
1851 1 -0.00379729 -0.0111978 0.00131015 6.26996e-06 1.41988e-06 1.18831e-05 7.69633e-09 -1.01315e-09 4.22158e-09 -2.58376e-08 2.97314e-08 9.18647e-07 0.0005 