ITEM: TIMESTEP
60000
ITEM: NUMBER OF ATOMS
10000
ITEM: BOX BOUNDS mm mm mm
-0.015 0.015
-0.015 0.015
-0.001 0.0554
ITEM: ATOMS id type x y z vx vy vz fx fy fz f_dragforce[1] f_dragforce[2] f_dragforce[3] radius 
1359 1 -0.00149295 -0.0132663 0.000499704 -2.51371e-06 -4.15084e-06 -3.91241e-07 -1.62474e-08 -4.95696e-10 3.89811e-08 4.05446e-08 -1.12799e-10 1.64772e-06 0.0005 
637 1 -0.00304763 -0.0122398 0.000499073 2.31661e-05 4.13465e-05 1.86304e-05 -1.23687e-07 -9.37049e-09 -2.81057e-08 2.89017e-08 4.7095e-08 1.08788e-06 0.0005 
1496 1 -0.00207087 -0.0124504 0.000499039 3.47869e-05 2.94284e-06 -1.7842e-06 -3.37887e-08 1.87757e-08 4.85034e-08 3.40452e-08 1.747e-08 1.17067e-06 0.0005 
502 1 -0.00077067 -0.0125178 0.000499322 5.57362e-05 -7.45691e-05 4.45963e-06 1.38866e-08 -1.02963e-07 4.61535e-08 3.7526e-08 -4.77086e-09 1.06448e-06 0.0005 
1195 1 -0.00706494 -0.0111045 0.000499583 2.85046e-05 -6.39169e-05 -7.29874e-06 5.94543e-08 -4.37789e-08 7.26339e-09 -1.89454e-07 1.15467e-08 1.40659e-06 0.0005 
1356 1 -0.0063128 -0.0117632 0.000499727 2.95368e-05 -2.29646e-05 -1.06631e-05 6.15988e-08 -3.10941e-08 -1.76886e-08 -1.46608e-07 8.35058e-08 1.58651e-06 0.0005 
939 1 -0.00514826 -0.0116596 0.00049961 7.15912e-06 3.80626e-05 2.04651e-06 4.37557e-08 -1.07331e-07 -2.35868e-09 -6.91658e-08 7.05513e-08 1.17351e-06 0.0005 
1758 1 -0.00414818 -0.0116567 0.000499795 -5.25377e-05 4.23415e-05 -2.22985e-07 3.03804e-09 4.55833e-08 8.78307e-10 -2.90971e-09 5.56347e-08 1.00733e-06 0.0005 
656 1 -0.0032206 -0.0112565 0.000499597 -1.50613e-05 6.69892e-05 3.46595e-05 -1.43924e-08 -1.15666e-08 -2.3681e-08 1.49817e-08 5.5849e-08 1.06795e-06 0.0005 
758 1 -0.00220711 -0.0114578 0.00049969 4.88335e-05 2.82694e-05 -2.37256e-05 7.65031e-09 -1.04514e-07 1.00517e-07 5.47694e-09 2.01135e-08 1.05116e-06 0.0005 
319 1 -0.00120427 -0.0115101 0.000499781 1.11103e-05 4.55798e-05 1.22279e-05 2.58792e-07 -3.82752e-09 -5.97527e-08 -7.94341e-09 -1.10308e-09 1.04368e-06 0.0005 
511 1 -1.52224e-05 -0.0111167 0.000498515 0.000140128 0.000176165 3.93088e-05 4.25285e-08 1.82458e-07 -9.65084e-09 2.58173e-08 2.2976e-09 9.24325e-07 0.0005 
1144 1 -0.00802731 -0.0106669 0.00049976 -3.70855e-05 0.000166743 2.08304e-05 1.56853e-07 -4.34221e-08 1.29107e-08 -2.47024e-07 -7.4538e-08 1.31129e-06 0.0005 
353 1 -0.00577958 -0.0108844 0.00049963 2.72477e-05 3.11542e-05 -1.15593e-05 -4.35739e-08 -1.73772e-07 2.87434e-08 -1.01813e-07 3.45312e-09 1.08526e-06 0.0005 
1818 1 -0.00393869 -0.0105625 0.000498964 -1.60776e-06 9.8258e-05 1.42247e-05 4.05181e-08 7.28945e-08 3.37414e-08 7.08841e-09 1.38668e-08 1.06506e-06 0.0005 
1873 1 -0.00258369 -0.010487 0.000499555 1.58948e-06 6.41759e-05 1.20293e-05 1.10586e-07 -1.45162e-07 -4.34593e-08 1.48846e-08 -2.16589e-08 1.04989e-06 0.0005 
2211 1 -0.000755629 -0.0104455 0.000499195 -1.64778e-05 0.000104343 -9.88694e-06 1.51712e-07 1.05456e-07 5.14414e-09 -9.39975e-09 -6.24195e-08 9.91431e-07 0.0005 
647 1 -0.00885552 -0.00999048 0.000499758 -9.38624e-05 0.000121629 -2.07128e-05 6.47656e-08 -2.28898e-08 -1.31417e-08 -1.96012e-07 -1.56664e-07 1.28226e-06 0.0005 
542 1 -0.00733941 -0.00993821 0.0004993 -8.61815e-05 -0.000143304 8.58586e-06 -5.09526e-08 -7.05553e-08 5.96718e-08 -2.29617e-07 -1.68912e-07 9.75803e-07 0.0005 
1585 1 -0.00535669 -0.00994605 0.000499169 -3.7214e-05 2.99972e-05 1.77863e-05 -4.66332e-08 2.75606e-08 4.50252e-09 -4.18472e-08 -8.93535e-08 1.06852e-06 0.0005 
2142 1 -0.00325975 -0.00975082 0.000499446 -8.68104e-06 3.71105e-05 -5.04208e-06 1.09912e-07 7.30266e-08 4.87383e-08 2.83304e-08 -1.04033e-07 1.02579e-06 0.0005 
2330 1 -0.00886431 -0.00898628 0.000499061 3.32876e-05 1.22175e-05 3.70977e-05 -1.28044e-08 -7.7715e-08 -3.93662e-08 -2.0735e-07 -2.28016e-07 9.51451e-07 0.0005 
733 1 -0.00681132 -0.00907029 0.000499367 2.32634e-05 -8.67107e-05 8.51545e-06 8.33035e-08 9.8422e-09 -4.02224e-08 -1.56528e-07 -1.68532e-07 1.0469e-06 0.0005 
1443 1 -0.00575582 -0.00889348 0.000499591 2.3332e-05 1.73964e-05 6.35218e-06 6.07536e-08 3.82104e-08 3.61336e-08 -6.9878e-08 -1.89643e-07 1.04026e-06 0.0005 
1221 1 -0.00475626 -0.00887439 0.000499483 1.91873e-05 9.00541e-08 -5.23969e-06 5.33355e-08 9.68921e-08 -1.94273e-08 -1.57941e-08 -1.97616e-07 1.04244e-06 0.0005 
388 1 -0.00320965 -0.00875224 0.000499776 7.30785e-05 2.17095e-05 7.75336e-06 4.52899e-10 1.29373e-07 -1.52485e-07 1.8689e-08 -1.45211e-07 1.02374e-06 0.0005 
823 1 -0.00236088 -0.00928085 0.000499768 6.85344e-05 8.75359e-05 -2.04486e-05 -1.67535e-07 -1.08982e-07 4.81214e-08 3.76725e-08 -1.61404e-07 9.99478e-07 0.0005 
714 1 -0.00108386 -0.00881142 0.000499313 6.88008e-05 8.39144e-05 5.04193e-05 -2.26354e-07 -7.93097e-08 -1.34117e-07 4.19384e-08 -2.34447e-07 9.44097e-07 0.0005 
462 1 -8.59343e-05 -0.00886681 0.000499414 7.03345e-05 7.67122e-06 -1.00539e-05 -1.30864e-07 2.84563e-07 1.45052e-07 2.54462e-09 -1.28236e-07 8.78957e-07 0.0005 
529 1 -0.0102103 -0.00860125 0.000499631 1.7068e-06 6.71347e-07 3.08453e-06 6.08891e-08 -7.06309e-08 5.46587e-09 7.19781e-08 -3.12446e-07 1.43352e-06 0.0005 
359 1 -0.00934098 -0.0081077 0.000499288 2.78063e-06 1.19477e-05 7.47037e-06 4.84247e-08 -2.41259e-08 -1.2117e-08 -1.60332e-07 -1.9699e-07 1.01617e-06 0.0005 
1505 1 -0.00808139 -0.00836476 0.000499623 0.000166475 -5.45916e-05 -2.28018e-05 2.40923e-07 -7.42182e-08 -1.05724e-07 -2.28667e-07 -1.46074e-07 1.01083e-06 0.0005 
2252 1 -0.00613782 -0.00796949 0.000499688 1.52758e-06 1.36896e-05 8.76995e-06 4.72673e-09 -5.11719e-08 -1.71523e-08 -9.6294e-08 -1.227e-07 1.08933e-06 0.0005 
2042 1 -0.00233091 -0.008275 0.000499787 7.90039e-05 4.21229e-05 1.22864e-05 -2.17504e-07 2.70472e-07 1.63908e-07 4.28319e-09 -1.69385e-07 1.02634e-06 0.0005 
1539 1 -0.0108377 -0.00779595 0.000499165 -1.92184e-05 5.63934e-05 7.25005e-06 1.02237e-08 -3.95862e-08 4.05553e-08 1.61749e-07 -2.63548e-07 1.64737e-06 0.0005 
986 1 -0.00813345 -0.00736626 0.000499709 0.000128944 -1.90547e-05 2.14838e-05 -1.60694e-08 -4.83371e-08 -3.01593e-08 -3.21767e-07 -1.36411e-07 9.28266e-07 0.0005 
1847 1 -0.00709951 -0.00769605 0.000499204 -8.82335e-06 -3.14513e-05 1.62855e-06 -8.02454e-08 -1.80054e-10 -2.25573e-08 -1.86264e-07 -1.10345e-07 1.1049e-06 0.0005 
1447 1 -0.00561202 -0.00711904 0.000499759 -1.69608e-06 3.741e-05 -1.55989e-05 -1.29349e-07 2.92696e-08 -8.99454e-09 -6.02548e-08 -9.4436e-08 1.05806e-06 0.0005 
1848 1 -0.00461959 -0.00724122 0.000499387 2.27724e-05 2.77535e-06 1.65555e-05 -1.99447e-08 -1.92236e-08 3.18105e-08 -6.14355e-08 -2.72475e-08 1.09755e-06 0.0005 
2417 1 -0.00359235 -0.00736289 0.000499607 3.3069e-05 -3.63571e-05 -1.14301e-06 1.0094e-07 8.05256e-08 7.16852e-08 -6.98081e-08 -5.55011e-08 1.06183e-06 0.0005 
1462 1 -0.00259363 -0.00730934 0.000499138 7.62618e-05 8.06078e-05 -2.60263e-05 -1.09711e-07 -1.07885e-07 4.71584e-08 -5.67039e-08 -1.26168e-07 1.02639e-06 0.0005 
46 1 -0.00131316 -0.0078384 0.000499717 0.000172178 0.000102892 -0.000150136 1.63883e-07 -2.04392e-07 -3.51281e-08 7.61798e-08 -3.65363e-07 1.16028e-06 0.0005 
1432 1 -0.00018818 -0.00787249 0.000499345 1.53562e-05 -1.29004e-05 -1.65658e-05 1.58803e-07 2.12355e-07 6.27288e-09 1.10467e-07 -2.09337e-07 9.85518e-07 0.0005 
2195 1 -0.0115988 -0.0066042 0.000499187 0.000180374 7.81001e-05 -7.7568e-08 7.49582e-08 8.75838e-08 2.12386e-08 3.25847e-07 -1.07597e-07 1.82335e-06 0.0005 
1429 1 -0.0105946 -0.00682593 0.000499796 6.58462e-05 5.76734e-05 -8.3875e-07 1.04272e-07 -9.45124e-08 7.91494e-09 1.67199e-07 -1.32554e-07 1.1109e-06 0.0005 
551 1 -0.00960044 -0.00693372 0.000499479 5.07789e-05 3.72921e-05 -1.15564e-05 -4.56858e-08 -4.31107e-08 5.84168e-08 -4.74483e-08 -1.41497e-07 1.02776e-06 0.0005 
490 1 -0.00778341 -0.00634907 0.000499453 5.02633e-05 -8.09356e-06 -9.96877e-07 -1.00929e-08 -3.58258e-08 -2.82068e-09 -3.16189e-07 -9.51257e-08 9.88269e-07 0.0005 
1485 1 -0.00647038 -0.00657873 0.000499743 9.5669e-06 9.14851e-06 1.54585e-05 -1.49305e-08 1.7471e-07 -4.74114e-09 -1.44605e-07 -1.34114e-07 1.07094e-06 0.0005 
74 1 -0.0040496 -0.00639647 0.000499552 0.000117645 7.64727e-05 1.33333e-05 -9.27547e-08 -1.02665e-07 4.07117e-08 5.36847e-08 3.47971e-08 9.57768e-07 0.0005 
606 1 -0.0109791 -0.00581936 0.000499798 0.000273785 3.40464e-06 -4.35409e-06 1.61176e-07 -3.31866e-08 1.08868e-08 2.6782e-07 -7.05316e-08 1.21363e-06 0.0005 
1293 1 -0.00999675 -0.00600626 0.000499791 0.000255163 -0.000268049 6.90872e-06 5.48037e-08 -8.43486e-08 2.58507e-08 2.12517e-07 -6.1958e-08 1.07402e-06 0.0005 
1263 1 -0.00885475 -0.00626753 0.000499786 9.59566e-05 -2.16819e-06 1.95524e-06 -2.717e-08 -3.15918e-08 1.29511e-08 -1.49705e-07 -1.47772e-07 9.65905e-07 0.0005 
1248 1 -0.00701651 -0.00570736 0.000499791 4.06035e-05 1.78199e-05 1.99447e-06 -4.51465e-08 -2.72395e-08 -1.05337e-08 -2.45802e-07 -7.9632e-08 1.01745e-06 0.0005 
1101 1 -0.00560409 -0.00601089 0.000498964 9.26053e-05 7.69575e-05 -3.62105e-06 -3.13467e-08 -3.96097e-08 -3.33567e-08 -4.56565e-08 -9.57467e-08 1.07154e-06 0.0005 
817 1 -0.00467831 -0.00561313 0.000499625 2.77981e-05 -3.62355e-05 1.06408e-05 2.99536e-08 1.77189e-07 2.38415e-08 5.43367e-08 4.42302e-08 9.60037e-07 0.0005 
1969 1 -0.00335332 -0.00559083 0.000499397 2.73074e-05 7.04824e-05 1.23949e-05 -3.24984e-08 -4.69648e-08 -2.35733e-08 -1.71898e-07 -6.44582e-08 9.36687e-07 0.0005 
266 1 -0.00225202 -0.0060909 0.000499092 0.000124815 5.38532e-05 -9.73852e-07 -1.87329e-07 -2.79462e-08 -4.37784e-08 -2.47503e-07 -1.96761e-07 9.27211e-07 0.0005 
1477 1 -0.00092045 -0.00626015 0.000499519 0.000139581 0.000142118 3.67465e-05 -4.75672e-08 1.71266e-07 -7.60477e-08 7.00429e-08 -2.05404e-07 1.09568e-06 0.0005 
740 1 -8.91882e-05 -0.00558949 0.000499565 -5.55341e-05 -0.000176292 -1.49779e-05 7.02395e-08 3.25751e-07 6.31938e-08 2.44503e-07 -1.25371e-07 8.9384e-07 0.0005 
1091 1 -0.0121731 -0.00548297 0.00049892 1.56709e-05 -6.27437e-06 1.16139e-05 -1.74586e-08 4.59432e-08 -2.19165e-08 2.49289e-07 -6.61307e-08 1.89844e-06 0.0005 
900 1 -0.011364 -0.00489599 0.000499597 2.75991e-05 -1.84843e-05 -6.59383e-06 2.53142e-09 2.7315e-08 6.20923e-09 1.65784e-07 -7.98281e-08 1.02451e-06 0.0005 
1315 1 -0.0103102 -0.00483796 0.000499201 4.53908e-05 -1.32792e-05 2.37848e-06 8.44682e-09 1.43076e-09 3.47702e-08 1.6197e-07 -7.01022e-08 1.0566e-06 0.0005 
53 1 -0.00867564 -0.00528373 0.000498884 4.93986e-05 -1.61369e-05 -7.01592e-06 -4.4056e-09 -4.08268e-08 3.57513e-08 -6.08972e-08 -1.79667e-07 1.01395e-06 0.0005 
93 1 -0.00731937 -0.00475434 0.000499628 4.08578e-05 4.57687e-06 9.1182e-07 -1.19208e-09 -9.19326e-08 2.93618e-08 -1.13149e-07 -1.29638e-07 1.00459e-06 0.0005 
1403 1 -0.00564864 -0.00495256 0.000499764 -5.11585e-06 -3.03091e-05 -6.80601e-06 -1.74423e-07 -7.22899e-08 -1.27998e-08 -4.30558e-08 -2.01565e-08 1.00361e-06 0.0005 
2181 1 -0.00395304 -0.00479114 0.000499222 -8.3015e-06 2.13192e-05 -3.27975e-06 4.98099e-08 1.10905e-07 1.52187e-08 -1.63409e-07 -1.11096e-08 9.04456e-07 0.0005 
152 1 -0.00257411 -0.00496527 0.000500498 -2.77187e-05 0.000115981 -2.9242e-05 -6.2991e-08 8.59472e-08 -4.34579e-08 -2.20431e-07 -7.45453e-08 1.11809e-06 0.0005 
262 1 -0.000966534 -0.00511 0.000499535 8.94453e-05 6.55852e-05 -3.1121e-07 -4.14283e-08 1.77428e-07 7.48711e-08 7.82064e-08 -4.18335e-08 1.13735e-06 0.0005 
890 1 -0.0125487 -0.00455667 0.000499833 6.75201e-06 -5.45432e-06 3.84262e-06 -3.5379e-08 5.98005e-08 8.14036e-09 1.06056e-07 -6.71998e-08 1.77744e-06 0.0005 
2 1 -0.0108915 -0.00401494 0.000499819 3.97014e-05 -2.93319e-05 -1.09437e-05 -4.9034e-08 7.45289e-08 9.80909e-09 5.18798e-08 -1.13217e-07 9.77605e-07 0.0005 
12 1 -0.00938614 -0.00445575 0.000499415 3.45351e-05 -3.31183e-05 -5.90046e-06 2.17648e-08 -2.94721e-08 2.44261e-08 -8.36556e-09 -1.32432e-07 1.01837e-06 0.0005 
1415 1 -0.00839495 -0.00432449 0.000499148 3.41453e-05 -8.51398e-06 -6.96376e-06 1.11155e-08 -4.35089e-08 1.42815e-10 -6.39007e-08 -1.41968e-07 1.0032e-06 0.0005 
2064 1 -0.00595583 -0.004001 0.000498896 4.98002e-05 1.93251e-05 2.74723e-05 -1.28977e-09 1.86628e-09 1.12963e-08 -2.40517e-08 5.80689e-09 9.85545e-07 0.0005 
1452 1 -0.00495608 -0.00400346 0.000499721 4.12452e-05 -6.05123e-05 -1.98196e-06 1.48066e-09 -5.06434e-08 -1.15477e-08 -6.2907e-08 1.42204e-08 9.25127e-07 0.0005 
1459 1 -0.00317268 -0.0041647 0.000499251 -9.51173e-05 7.27574e-05 4.07682e-05 -1.45224e-07 1.37953e-07 4.90626e-08 -2.23778e-07 -1.53401e-08 1.13449e-06 0.0005 
1507 1 -0.00173914 -0.00441623 0.000499715 2.9487e-05 -1.32194e-05 3.17651e-06 -4.88767e-08 3.39082e-08 -5.7878e-08 -8.69871e-08 1.09131e-08 1.17048e-06 0.0005 
2217 1 -0.000783226 -0.0041248 0.000499463 5.62354e-05 -9.33683e-05 6.738e-06 -1.85633e-08 1.35071e-08 6.76709e-09 1.68546e-07 1.29673e-07 1.17027e-06 0.0005 
982 1 -0.0128887 -0.00347951 0.000499422 4.36679e-06 -1.62381e-05 -7.02542e-06 8.66508e-08 -1.23709e-07 8.15514e-09 6.7773e-08 -3.9641e-08 1.76545e-06 0.0005 
1544 1 -0.00998452 -0.00359381 0.000499792 2.31242e-05 -6.26437e-05 -7.002e-08 -6.15608e-08 2.45788e-08 -1.40382e-08 -2.90129e-08 -9.64928e-08 1.00654e-06 0.0005 
2007 1 -0.00898734 -0.00351896 0.000499787 1.93025e-06 -8.95409e-06 -1.34537e-06 -5.60681e-08 -3.61004e-08 1.49292e-08 -1.24669e-07 -8.2289e-08 1.03689e-06 0.0005 
1617 1 -0.00781585 -0.00350417 0.000499296 9.40954e-05 0.000126241 -2.30485e-06 1.50637e-08 -1.6792e-08 3.8332e-08 -5.75157e-08 -7.76467e-08 9.97801e-07 0.0005 
230 1 -0.00404233 -0.00359773 0.000499557 6.22563e-05 -3.03108e-05 1.79868e-05 -4.29008e-08 1.678e-08 8.70144e-09 -1.1147e-07 2.79093e-08 9.14051e-07 0.0005 
1067 1 -0.00239121 -0.00354088 0.000499414 1.18838e-05 2.66747e-06 -9.2143e-06 -2.68546e-08 1.02658e-07 -1.30309e-09 -1.85084e-07 5.35843e-08 1.06028e-06 0.0005 
9 1 -0.0130635 -0.0024756 0.000499662 7.98806e-06 1.95219e-05 3.03692e-06 9.47183e-09 1.17583e-08 -2.06011e-08 1.01536e-07 -1.31779e-08 1.78011e-06 0.0005 
2406 1 -0.0116644 -0.00306286 0.000499142 1.44605e-05 1.75453e-05 2.86779e-07 -3.87756e-09 9.79675e-09 -2.57247e-08 7.16202e-08 -5.96227e-08 1.03972e-06 0.0005 
178 1 -0.00953606 -0.00268306 0.000499778 4.2492e-07 -2.95852e-05 -5.49746e-07 4.58741e-08 8.44823e-08 -6.86717e-09 -9.4475e-08 -4.92719e-08 1.03768e-06 0.0005 
1238 1 -0.00853152 -0.00262898 0.000499432 -4.90085e-05 3.41765e-05 -1.00478e-05 7.90486e-08 6.86181e-09 3.67277e-08 -8.66845e-08 -4.33727e-08 1.01871e-06 0.0005 
1610 1 -0.00704218 -0.00270877 0.000499794 6.24851e-05 -2.98874e-05 -8.82112e-09 5.17057e-09 -1.18442e-08 -6.03546e-12 7.64043e-09 -1.60852e-08 9.87944e-07 0.0005 
391 1 -0.00605375 -0.00288306 0.000499795 3.87281e-05 2.86392e-05 3.1695e-06 4.78564e-08 -9.54868e-08 3.40359e-08 1.01735e-07 4.63294e-09 9.62401e-07 0.0005 
1178 1 -0.00506173 -0.00300905 0.000499792 4.11611e-05 -9.15245e-06 -1.04415e-05 9.89552e-08 -9.21182e-09 -3.12601e-08 4.97659e-08 1.46131e-08 9.41584e-07 0.0005 
1798 1 -0.00415536 -0.00258657 0.000499728 7.82121e-05 6.22455e-05 -1.47137e-05 4.61943e-08 1.84633e-07 7.6259e-09 3.67979e-08 1.49304e-08 9.34115e-07 0.0005 
619 1 -0.00323608 -0.00300638 0.000499702 4.01438e-05 9.20676e-05 -1.33294e-05 -4.79704e-08 1.45931e-07 -3.75194e-08 -1.57912e-07 8.05462e-08 8.94924e-07 0.0005 
38 1 -0.00236993 -0.00249477 0.000499789 -0.000538013 -0.000502603 -1.48183e-05 1.59279e-07 -6.22947e-08 -2.35793e-08 -1.96348e-07 1.40078e-07 8.82102e-07 0.0005 
736 1 -0.000795295 -0.00294954 0.000499733 1.96137e-05 -5.41358e-05 -3.02077e-05 2.10427e-08 -1.56207e-08 -4.92684e-09 2.67407e-08 6.19525e-08 1.06843e-06 0.0005 
186 1 -0.0124291 -0.00170269 0.000499367 2.88722e-05 2.90386e-06 -8.5803e-06 -4.28071e-08 3.99981e-08 -3.24253e-09 1.5912e-07 9.85844e-09 1.18287e-06 0.0005 
459 1 -0.0114493 -0.00208731 0.000499632 8.57855e-05 1.09105e-05 -1.80889e-05 -1.16115e-07 3.1408e-08 -4.61882e-10 1.56831e-07 5.4656e-09 1.08141e-06 0.0005 
866 1 -0.0104734 -0.0023341 0.000499543 -3.19971e-05 -2.54229e-06 4.74467e-06 1.45747e-07 5.29768e-08 -7.6712e-08 4.01547e-08 -4.75748e-08 9.969e-07 0.0005 
1411 1 -0.00938086 -0.00168367 0.000499653 -9.81956e-05 -1.79063e-05 1.96745e-06 1.66253e-07 -3.62152e-08 -1.1793e-08 1.98041e-08 -4.59986e-08 9.12981e-07 0.0005 
1278 1 -0.00775189 -0.00200323 0.000499609 -5.58652e-05 5.25327e-05 1.36335e-05 1.48085e-07 -9.68597e-09 -1.13234e-08 -3.80313e-08 -1.21245e-09 9.85528e-07 0.0005 
62 1 -0.00595996 -0.00187153 0.00049979 5.91969e-05 1.2728e-05 -5.25967e-06 2.56515e-07 -1.26184e-07 5.02958e-08 7.72225e-08 -2.62554e-09 9.59523e-07 0.0005 
1669 1 -0.00496884 -0.00200526 0.000499687 5.62873e-05 -3.79651e-05 1.52718e-05 -1.37083e-08 1.1266e-07 7.98592e-09 6.42484e-08 -2.95985e-08 9.06909e-07 0.0005 
695 1 -0.00125255 -0.00197642 0.000499632 3.29075e-05 -9.37473e-06 9.63757e-06 -4.02517e-08 1.47334e-07 1.45277e-08 -5.70176e-08 2.7783e-08 1.05031e-06 0.0005 
1530 1 -0.0132957 -0.00120427 0.000499688 1.04581e-05 2.93699e-06 5.50978e-06 -3.77057e-09 2.47142e-08 -1.35609e-08 1.33739e-07 6.21694e-08 1.87056e-06 0.0005 
1654 1 -0.0107142 -0.00136408 0.000499646 2.00119e-05 9.55532e-08 3.51373e-06 1.0671e-07 7.86769e-08 -1.15488e-07 1.58721e-07 4.45014e-08 1.10784e-06 0.0005 
299 1 -0.00772285 -0.000994365 0.000499797 -0.000267345 -5.72018e-05 -2.09036e-06 -6.60062e-08 5.94469e-08 2.6164e-08 -8.53498e-08 6.3924e-08 9.53798e-07 0.0005 
98 1 -0.00667719 -0.00106287 0.000499241 6.26372e-05 -1.26963e-05 -1.68494e-05 1.78817e-07 4.35568e-08 -1.24534e-09 3.54478e-09 4.48057e-08 9.52219e-07 0.0005 
1060 1 -0.00391812 -0.00157287 0.000499534 4.14992e-05 5.52497e-05 -3.47365e-06 2.13996e-07 1.33576e-08 9.43149e-09 -4.2579e-08 -1.27413e-07 8.41516e-07 0.0005 
781 1 -0.002173 -0.00125841 0.000499737 0.000137845 7.73125e-07 2.34307e-05 1.63767e-07 -9.35607e-08 -7.10577e-08 -1.95809e-07 -8.53236e-08 8.55166e-07 0.0005 
1955 1 -0.000342781 -0.00148307 0.000499352 -8.99254e-06 -4.22517e-05 -3.96479e-06 7.9217e-08 4.66953e-08 3.13041e-08 6.45313e-08 1.25804e-08 9.7126e-07 0.0005 
1675 1 -0.0124418 -0.000621811 0.00049928 -5.08631e-06 -1.46412e-05 5.10318e-07 2.82066e-08 3.3662e-08 3.92403e-09 1.57318e-07 1.01651e-07 1.18179e-06 0.0005 
2125 1 -0.0114997 -0.000102103 0.000499414 0.00071038 0.000599774 -1.21703e-05 9.99181e-08 4.6236e-08 2.33847e-08 4.01767e-08 1.8386e-07 1.06742e-06 0.0005 
2169 1 -0.00953264 -0.000695334 0.000499778 -8.63193e-06 -2.76966e-05 -3.73879e-06 6.28975e-08 -3.58774e-08 -5.01617e-09 5.33017e-08 -1.97978e-08 9.03446e-07 0.0005 
6577 1 -0.00858927 -0.000365333 0.000499081 1.22372e-05 -3.87845e-05 6.68443e-06 2.33083e-08 -3.45581e-08 -1.34633e-08 -2.55234e-08 3.21716e-08 9.25884e-07 0.0005 
6638 1 -0.00683614 -7.63163e-05 0.000499353 0.000104705 4.92356e-06 8.30845e-06 2.03265e-07 1.90204e-08 3.0616e-08 -5.57345e-08 8.0984e-08 8.99116e-07 0.0005 
1600 1 -0.00576667 -0.000645113 0.000499304 9.08385e-05 1.81082e-06 5.73529e-06 1.92241e-07 -1.31065e-08 2.10734e-08 5.87624e-09 1.0795e-08 9.53364e-07 0.0005 
108 1 -0.00325975 -0.000745655 0.000499502 8.50929e-05 6.99893e-05 2.29385e-05 3.16238e-08 1.30688e-08 -3.79068e-08 -1.44571e-07 -1.62662e-07 8.43072e-07 0.0005 
288 1 -0.0017802 -0.000338872 0.000499495 9.24578e-05 4.21456e-05 -9.80919e-06 1.05578e-09 8.58761e-09 -4.21459e-08 -4.12153e-08 -8.81306e-08 9.01296e-07 0.0005 
1934 1 -0.000387759 -0.000483956 0.000499547 4.04008e-05 -3.01694e-05 -2.56495e-06 -3.32625e-08 2.06743e-08 -1.77894e-09 1.05821e-07 2.57187e-08 9.6017e-07 0.0005 
1180 1 -0.00374289 -0.0128151 0.000927795 -8.29868e-06 2.01908e-05 -7.11706e-07 4.48702e-09 -3.34851e-09 6.02963e-09 2.59353e-08 3.79119e-08 2.0577e-06 0.0005 
1047 1 -0.00271633 -0.0130722 0.000940251 1.72337e-05 1.92413e-05 2.85639e-05 -7.18137e-08 2.39395e-08 5.84597e-08 2.3957e-08 2.64593e-08 2.21258e-06 0.0005 
2053 1 -0.00467637 -0.0125044 0.000750665 -4.06881e-06 3.28635e-05 -2.4002e-05 5.12536e-08 -4.51674e-08 6.37001e-10 -2.78557e-08 6.99968e-08 1.93923e-06 0.0005 
427 1 -0.00477285 -0.0110257 0.00117543 2.99146e-05 6.88558e-05 2.58212e-06 1.13186e-07 -1.1047e-07 -2.28328e-08 -2.78857e-08 2.71123e-08 2.24051e-06 0.0005 
2081 1 -0.00166454 -0.0106882 0.000835778 -4.35202e-06 6.81793e-05 2.60742e-05 1.26504e-07 -1.92436e-07 -2.44968e-08 -2.14135e-08 -4.69977e-08 1.65543e-06 0.0005 
1375 1 -0.00811365 -0.00948088 0.000934949 8.78322e-06 -2.26529e-05 5.65006e-05 -2.66219e-08 5.99359e-08 1.0904e-07 -2.62437e-07 -2.34151e-07 1.81475e-06 0.0005 
1658 1 -0.00634853 -0.0100629 0.000537082 -5.35043e-05 -6.11539e-05 -0.000625488 -6.06513e-08 -1.52174e-07 -2.19335e-07 -1.22248e-07 -1.0143e-07 1.14858e-06 0.0005 
110 1 -0.00455956 -0.0100524 0.00109188 8.77084e-06 0.000121213 1.20685e-05 -2.57137e-08 5.99206e-08 7.49686e-08 -3.53713e-08 -6.85151e-08 2.0863e-06 0.0005 
1487 1 -0.00223722 -0.0099279 0.00125199 0.000115103 0.000104757 -3.15427e-05 7.56357e-08 -3.83301e-07 3.20186e-08 -2.73992e-08 -1.16242e-07 2.2488e-06 0.0005 
2090 1 -0.00144294 -0.00973332 0.000640853 -0.000106313 0.000109034 9.22517e-05 1.36131e-07 -1.46771e-07 1.55555e-07 2.0549e-08 -1.72901e-07 1.13957e-06 0.0005 
2461 1 -0.00958364 -0.00929529 0.00111951 -5.32134e-06 2.48767e-05 1.31272e-05 -6.79286e-08 2.29976e-08 -6.27839e-08 -6.1539e-08 -2.4349e-07 2.33548e-06 0.0005 
1750 1 -0.00397156 -0.00925055 0.000991724 5.50133e-05 0.000101135 2.62233e-05 8.8809e-08 1.82932e-07 4.30589e-09 2.17491e-08 -1.68529e-07 2.03365e-06 0.0005 
243 1 -0.00695796 -0.00839035 0.00121757 1.03978e-05 2.54484e-05 -0.000123359 -5.35918e-08 -4.52123e-08 -1.10833e-07 -1.31892e-07 -5.70822e-08 2.74233e-06 0.0005 
948 1 -0.00518138 -0.00801652 0.00078715 1.84853e-05 5.29823e-06 1.77093e-05 1.11691e-08 1.70021e-08 -2.5484e-08 -6.85685e-08 -1.03728e-07 1.663e-06 0.0005 
793 1 -0.00402911 -0.00823042 0.000735979 5.32596e-05 -4.27761e-05 -1.19671e-06 5.79672e-08 1.21961e-07 2.1081e-08 -5.29596e-08 -1.04509e-07 1.38795e-06 0.0005 
1694 1 -0.00170205 -0.0085324 0.00123341 8.81173e-05 0.000142042 8.60041e-05 -5.75853e-08 6.37449e-10 -8.05279e-08 -5.03445e-09 -2.35498e-07 2.26652e-06 0.0005 
842 1 -0.0100254 -0.00764385 0.00106065 -3.17453e-06 1.02565e-05 3.287e-06 7.96983e-08 -8.04898e-08 6.36348e-08 -3.47204e-08 -2.39809e-07 2.12051e-06 0.0005 
239 1 -0.00901062 -0.00741922 0.00114425 2.8563e-05 1.12943e-05 -1.10833e-05 -3.10759e-08 -4.63638e-08 3.8535e-08 -2.69181e-07 -1.66247e-07 2.25767e-06 0.0005 
13 1 -0.00304758 -0.00786994 0.0011903 0.000181124 4.672e-05 1.0929e-05 -7.24431e-09 -1.86203e-09 1.84636e-07 -5.60521e-08 -1.0112e-07 2.34917e-06 0.0005 
1059 1 -0.00717612 -0.00674211 0.00118904 1.96144e-05 -5.34902e-05 3.36804e-07 2.11419e-08 2.82575e-08 1.00044e-08 -2.8391e-07 -1.18617e-07 2.30566e-06 0.0005 
830 1 -0.00488126 -0.00642157 0.00105308 0.000110424 0.000107518 2.27596e-05 -8.54489e-08 -8.96995e-08 1.90946e-08 3.60036e-08 -3.87477e-08 1.99579e-06 0.0005 
515 1 -0.00310571 -0.0065085 0.00080795 0.000112328 8.25823e-05 -9.74623e-06 -1.07175e-07 -8.78096e-08 1.04701e-08 -1.94645e-07 -1.27138e-07 1.46198e-06 0.0005 
2336 1 -0.00167906 -0.00690911 0.000541885 0.000106399 8.58976e-05 -0.000278177 7.85879e-08 -1.03803e-07 2.11167e-07 -4.75559e-08 -2.27345e-07 1.00361e-06 0.0005 
2421 1 -0.000540744 -0.00706312 0.000967973 6.7112e-05 5.19939e-05 -1.16708e-05 -1.04593e-07 1.01253e-07 -2.25758e-07 1.03375e-07 -2.97248e-07 2.06557e-06 0.0005 
1645 1 -0.00625335 -0.00560035 0.00113715 6.02578e-05 5.18589e-06 1.14479e-05 8.11109e-08 -2.07583e-10 2.63193e-08 -7.95339e-08 -1.30623e-07 2.32422e-06 0.0005 
100 1 -0.00401411 -0.00568968 0.00124288 4.25229e-05 -1.99289e-05 2.48126e-05 5.39929e-08 -4.60597e-09 -3.002e-08 6.08792e-08 3.54739e-08 2.28164e-06 0.0005 
2208 1 -0.00152733 -0.00570823 0.00107107 7.4472e-05 9.69434e-05 1.34098e-05 -2.18381e-07 3.83362e-08 1.16314e-07 -7.1036e-08 -1.4771e-07 2.14233e-06 0.0005 
220 1 -0.00940148 -0.00552291 0.00114161 6.30798e-05 -3.07317e-05 9.90297e-06 1.41232e-08 -3.36022e-08 1.25777e-07 9.30601e-08 -1.28417e-07 2.33028e-06 0.0005 
1211 1 -0.00784778 -0.00549587 0.00101639 6.91714e-05 1.08942e-05 -2.3798e-05 4.23119e-08 -2.70893e-08 -9.86221e-08 -1.96651e-07 -1.32579e-07 1.90941e-06 0.0005 
565 1 -0.00329087 -0.0048173 0.00124734 -2.69975e-05 -9.90074e-06 8.06272e-06 -1.24697e-08 1.49839e-07 5.71656e-08 -1.63402e-07 -5.88437e-08 2.36572e-06 0.0005 
2300 1 -0.0118211 -0.00397849 0.000867422 1.031e-05 2.03453e-05 -5.30564e-05 1.181e-07 -1.27578e-08 -4.93851e-08 7.11625e-08 -6.92782e-08 1.89572e-06 0.0005 
1986 1 -0.00647174 -0.00462692 0.00108218 6.83418e-05 1.17865e-05 5.45693e-05 8.11713e-08 3.30928e-08 1.29787e-07 -8.1806e-08 -4.93105e-08 2.0837e-06 0.0005 
1236 1 -0.00459949 -0.00459173 0.00123451 6.54596e-05 -1.05308e-05 8.55912e-05 8.98795e-09 9.75229e-08 4.68056e-09 -1.31689e-07 -2.20666e-08 2.2186e-06 0.0005 
483 1 -0.00251014 -0.00419293 0.00124744 -7.59513e-05 0.000100596 6.72152e-05 -7.75996e-08 1.98663e-07 4.18647e-08 -2.89451e-07 -6.09529e-08 2.80291e-06 0.0005 
696 1 -0.0068722 -0.00370147 0.000762756 0.000108064 0.000207023 9.60482e-06 2.53564e-08 -9.19963e-09 8.31899e-09 -4.43152e-08 -6.34664e-08 1.43744e-06 0.0005 
704 1 -0.00148255 -0.00354428 0.000916344 4.45253e-05 -3.37262e-05 -6.2014e-05 -3.09512e-08 2.75295e-08 -3.82453e-08 -6.43717e-09 4.3023e-08 1.8237e-06 0.0005 
2160 1 -7.68658e-05 -0.00355429 0.000916717 -1.78044e-05 -4.16339e-06 5.28454e-05 6.17307e-08 -2.63066e-08 -5.11058e-08 9.01422e-08 1.71292e-08 1.7229e-06 0.0005 
532 1 -0.0107954 -0.00314621 0.000985261 2.79883e-05 -3.72155e-05 -7.17699e-06 4.44123e-08 1.39297e-07 -4.34331e-08 -6.27119e-09 -1.17287e-07 1.95058e-06 0.0005 
1201 1 -0.00782476 -0.00278145 0.00119 -6.22215e-05 7.97652e-05 3.83936e-06 1.53845e-07 3.94577e-08 -1.5654e-08 -5.39879e-08 -3.68942e-08 2.36883e-06 0.0005 
2224 1 -0.0085574 -0.00179824 0.00105522 -8.39324e-05 -2.53087e-05 3.12566e-05 1.49044e-07 -3.56037e-09 2.3989e-08 -7.04525e-08 -2.11108e-08 1.89621e-06 0.0005 
1596 1 -0.0069736 -0.00180805 0.00109571 2.77549e-05 -5.05491e-06 -2.96157e-05 1.28211e-07 8.04142e-08 4.4454e-08 -2.86062e-08 2.19703e-08 1.94852e-06 0.0005 
2261 1 -0.00298303 -0.00176314 0.000797638 7.79724e-05 -1.23011e-05 -0.000160486 2.43623e-07 1.45868e-07 5.90569e-08 -1.7648e-07 -2.42968e-08 1.37359e-06 0.0005 
78 1 -0.0116467 -0.00115212 0.000790081 -5.97464e-06 -1.22281e-05 9.79322e-06 8.40642e-08 7.13117e-08 6.96827e-10 2.19969e-07 8.20235e-08 1.77703e-06 0.0005 
367 1 -0.0100599 -0.00114205 0.0012222 9.13233e-07 -1.76072e-06 3.29183e-05 7.51141e-08 -1.21373e-07 -1.04944e-07 1.33761e-07 -9.74285e-09 2.37098e-06 0.0005 
5 1 -0.00506125 -0.00114491 0.00100064 0.000132026 -2.43006e-05 -2.63714e-05 1.17772e-07 5.80329e-08 1.3836e-07 1.57847e-08 -1.25557e-07 1.72366e-06 0.0005 
1357 1 -0.00116815 -0.00104524 0.000853719 3.522e-05 1.49674e-05 -1.88516e-05 9.10489e-08 1.28892e-07 -5.87975e-08 -4.41628e-08 -5.24255e-08 1.63095e-06 0.0005 
967 1 -0.013349 -0.000207774 0.000558957 3.5805e-06 6.21207e-06 3.15305e-06 6.7964e-09 1.20075e-09 7.46352e-09 1.38889e-07 2.08972e-07 1.95529e-06 0.0005 
2095 1 -0.0104789 -0.000402087 0.00063245 8.51036e-06 8.67336e-06 6.91394e-06 1.32452e-07 7.9324e-08 -8.24117e-08 7.02683e-08 8.02494e-08 1.27529e-06 0.0005 
42 1 -0.00417871 -0.000689709 0.000889084 0.000104748 9.13745e-05 2.52123e-05 8.1354e-08 5.14497e-09 5.86989e-08 -2.39777e-08 -2.74681e-07 1.44023e-06 0.0005 
548 1 -0.00251853 -0.000547128 0.00114043 0.000104828 5.71107e-05 1.28504e-05 2.65897e-08 -4.42531e-08 -3.56463e-09 -1.59236e-07 -1.36637e-07 2.07515e-06 0.0005 
805 1 -0.00292204 -0.0130143 0.00191621 -1.04826e-05 -3.36688e-05 3.33147e-05 -1.59672e-07 1.35181e-07 9.76869e-08 -3.79882e-08 2.61311e-08 3.54337e-06 0.0005 
643 1 -0.0019885 -0.0132016 0.00161263 3.4861e-05 2.93657e-05 4.54102e-05 -1.19212e-07 1.163e-09 5.11587e-08 -7.7721e-09 2.4071e-09 3.1638e-06 0.0005 
1951 1 -0.000908474 -0.0133191 0.00130907 -1.29484e-05 -4.88977e-06 9.93234e-06 -6.5776e-08 4.04693e-08 1.57934e-07 1.38127e-08 -3.95349e-09 2.65666e-06 0.0005 
1971 1 -0.000139909 -0.012672 0.00125886 0.000135353 6.35491e-05 -2.01601e-05 2.28834e-07 3.92718e-08 -8.24418e-09 -2.00402e-08 -2.82677e-08 2.14607e-06 0.0005 
2416 1 -0.00018697 -0.0133487 0.00200059 2.51676e-06 2.09187e-05 9.03142e-06 1.55324e-07 3.20169e-08 9.22739e-08 -7.41203e-08 -4.50214e-09 3.46577e-06 0.0005 
2017 1 -0.0057085 -0.0119582 0.00127196 5.2159e-05 -1.30249e-05 3.79843e-06 5.0195e-08 -1.25357e-08 9.35763e-09 -1.16934e-07 8.75455e-08 2.69378e-06 0.0005 
527 1 -0.00434909 -0.0126221 0.00169868 -1.64228e-05 9.16542e-06 -2.54727e-05 6.12872e-08 9.60579e-08 3.79434e-08 -1.49306e-08 5.0021e-08 3.15586e-06 0.0005 
2327 1 -0.00336513 -0.0120783 0.00148779 4.64754e-05 -1.42786e-05 2.36108e-05 7.62073e-09 6.97089e-08 1.25189e-07 1.23413e-09 5.24763e-08 2.83174e-06 0.0005 
886 1 -0.00238513 -0.0122688 0.0014335 7.2121e-05 5.06639e-05 3.8266e-06 -5.02454e-08 -1.43775e-07 2.07878e-07 -7.85694e-09 1.99799e-08 2.70837e-06 0.0005 
848 1 -0.00141992 -0.0124608 0.00125687 4.18424e-05 2.85056e-05 4.85341e-06 -4.93333e-08 -1.42785e-07 2.66366e-08 2.29044e-08 -3.76615e-09 2.58003e-06 0.0005 
125 1 -0.000678111 -0.0119428 0.00168044 6.34601e-05 2.94923e-05 -3.3325e-05 -1.97205e-08 -1.07627e-07 -3.84295e-08 -6.43775e-08 -6.29439e-09 3.11279e-06 0.0005 
2456 1 -0.00683533 -0.0114675 0.00140225 1.66829e-05 -2.8594e-05 -3.74816e-05 3.93386e-09 2.48952e-08 4.14505e-08 -1.4664e-07 8.57956e-08 2.84211e-06 0.0005 
461 1 -0.00541352 -0.0112604 0.00192461 0.000154139 8.83464e-05 -0.000238698 -4.56856e-08 -8.04916e-09 1.45504e-07 -7.19795e-08 5.88259e-08 3.5911e-06 0.0005 
2263 1 -0.004501 -0.0116675 0.00195374 0.000107266 3.91307e-05 -0.000125414 1.30105e-07 2.84019e-07 5.29665e-09 -8.07128e-09 5.35585e-08 3.5597e-06 0.0005 
1851 1 -0.00379691 -0.0111937 0.00131362 2.64215e-05 3.01494e-06 7.94233e-05 1.26256e-07 7.2143e-08 3.2129e-08 1.42366e-08 6.70823e-08 2.63617e-06 0.0005 
947 1 -0.00270786 -0.0113259 0.00135487 0.000126436 7.17744e-05 -5.93557e-06 -1.33609e-07 -1.60699e-07 7.30964e-08 -1.57261e-08 3.73106e-08 2.64503e-06 0.0005 
2112 1 -0.00172656 -0.0115183 0.00138905 8.30739e-05 4.7801e-05 -6.46175e-06 -3.35245e-08 -1.89942e-07 -1.21741e-08 -3.76339e-08 -5.20874e-10 2.67491e-06 0.0005 