ITEM: TIMESTEP
35000
ITEM: NUMBER OF ATOMS
10000
ITEM: BOX BOUNDS mm mm mm
-0.015 0.015
-0.015 0.015
-0.001 0.0554
ITEM: ATOMS id type x y z vx vy vz fx fy fz f_dragforce[1] f_dragforce[2] f_dragforce[3] radius 
1359 1 -0.00148543 -0.0132641 0.000499797 2.01954e-05 -1.48619e-05 1.70031e-07 -4.23543e-08 1.71587e-08 1.43375e-08 -2.52376e-09 4.97611e-09 9.92525e-07 0.0005 
637 1 -0.00304779 -0.0122423 0.000497943 -1.94793e-06 -2.6272e-06 -3.09797e-06 -1.44739e-08 2.96406e-10 6.45314e-09 -8.21664e-09 3.35104e-08 6.60236e-07 0.0005 
1496 1 -0.0020718 -0.0124539 0.000497837 -2.82366e-06 -8.86974e-07 -5.14267e-06 -5.62654e-09 -1.56571e-08 -1.13327e-09 -7.03147e-09 2.0512e-08 7.08038e-07 0.0005 
502 1 -0.000772996 -0.0125202 0.000497764 3.49543e-06 -2.6425e-05 3.22835e-06 -6.86481e-09 -2.44508e-08 6.70568e-09 -4.42602e-09 6.33602e-09 6.41023e-07 0.0005 
1195 1 -0.007058 -0.0110981 0.000499057 -8.37053e-07 2.20261e-06 2.656e-06 5.87187e-08 1.77553e-08 9.35123e-09 -1.28641e-07 3.30543e-08 8.22985e-07 0.0005 
1356 1 -0.00631267 -0.0117636 0.000499201 2.60439e-06 -3.67587e-07 -9.95239e-07 -2.28411e-09 -2.10736e-08 -7.22783e-09 -9.83955e-08 8.46498e-08 9.31682e-07 0.0005 
939 1 -0.00514993 -0.0116618 0.000499481 -4.37898e-06 -3.60051e-06 -1.11254e-06 -3.34715e-08 -4.07804e-08 -2.20283e-08 -5.54697e-08 7.01044e-08 6.95082e-07 0.0005 
1758 1 -0.00414991 -0.0116634 0.000499785 -1.86165e-05 -1.40133e-05 -6.64952e-07 -1.75576e-08 -3.87918e-08 -1.29029e-08 -2.41682e-08 4.79775e-08 6.04877e-07 0.0005 
656 1 -0.00321857 -0.0112598 0.000498529 -1.45367e-05 -9.213e-06 -5.93776e-06 1.69934e-08 5.53158e-09 -5.0792e-09 -2.48693e-08 5.37074e-08 6.19203e-07 0.0005 
758 1 -0.00220819 -0.0114644 0.000498671 -3.66165e-06 1.04669e-05 5.66128e-06 1.34579e-08 -1.90519e-08 1.20175e-09 -2.54493e-08 3.37329e-08 6.22079e-07 0.0005 
319 1 -0.00119457 -0.0115204 0.000499752 -0.000469388 0.000295024 4.86888e-06 1.72566e-08 3.91893e-08 1.67112e-08 -2.94889e-08 2.22965e-08 6.25168e-07 0.0005 
511 1 -1.60341e-05 -0.0111188 0.000496331 -4.1407e-05 -2.68286e-05 -2.19991e-06 5.00477e-08 8.18501e-09 -2.56994e-08 -1.12915e-08 1.74226e-08 5.39516e-07 0.0005 
1144 1 -0.00800322 -0.0106572 0.000499444 -1.15635e-05 5.99518e-06 -1.67847e-07 -7.35236e-09 2.54369e-10 -3.31632e-09 -1.79561e-07 -3.67949e-08 7.75746e-07 0.0005 
353 1 -0.00578567 -0.0108907 0.000499469 -2.45545e-05 -1.30568e-05 -6.36934e-06 -1.00979e-07 -1.24795e-07 2.63298e-08 -7.28838e-08 3.31255e-08 6.38426e-07 0.0005 
1818 1 -0.00393611 -0.0105671 0.00049771 -2.2467e-05 -2.43968e-05 -3.48414e-06 2.1012e-08 8.0665e-09 -1.39799e-08 -2.62492e-08 2.98851e-08 6.17092e-07 0.0005 
1873 1 -0.00258528 -0.0104886 0.000499456 -2.85134e-05 -6.14486e-06 1.21527e-05 -2.86297e-09 1.1819e-11 1.35435e-09 -2.42885e-08 1.69632e-08 6.1378e-07 0.0005 
2211 1 -0.000755921 -0.0104477 0.000498264 -2.96731e-05 -1.658e-05 -5.39811e-06 5.59925e-09 -1.91111e-09 -3.83491e-10 -3.52327e-08 1.36759e-10 5.91334e-07 0.0005 
647 1 -0.00884544 -0.0100003 0.000499199 -1.06689e-05 3.12184e-06 -2.13298e-06 -9.04326e-09 7.64232e-09 7.03762e-09 -1.53396e-07 -9.44883e-08 7.60115e-07 0.0005 
542 1 -0.00732956 -0.00991834 0.000498895 -1.58368e-05 2.37699e-06 7.93069e-07 -5.58668e-09 9.86279e-09 -1.22463e-08 -1.48505e-07 -1.04819e-07 5.89465e-07 0.0005 
1585 1 -0.00535176 -0.00995 0.000498189 -2.4678e-05 -4.07654e-05 -3.86173e-06 -9.96372e-09 -8.92431e-08 -9.97944e-09 -3.52479e-08 -2.72989e-08 6.31285e-07 0.0005 
2142 1 -0.00326002 -0.00975274 0.00049876 -3.02731e-05 -1.06524e-05 -7.4061e-06 -2.50863e-08 -3.07211e-08 -5.78788e-09 -6.52899e-09 -4.31795e-08 5.94886e-07 0.0005 
2330 1 -0.00886745 -0.00899215 0.000496691 -1.1206e-05 4.70015e-06 1.99968e-06 7.5669e-09 -9.29867e-09 -1.44138e-08 -1.41631e-07 -1.49652e-07 5.63136e-07 0.0005 
733 1 -0.00681193 -0.00906331 0.000498726 1.8336e-06 -1.02558e-05 -6.02235e-06 6.09581e-09 2.67885e-08 -2.79658e-10 -9.99797e-08 -1.0242e-07 6.29005e-07 0.0005 
1443 1 -0.00575838 -0.00889919 0.000498793 -1.20041e-05 -8.50676e-06 -5.42596e-06 4.7156e-09 3.21623e-09 -4.10841e-09 -5.06453e-08 -1.149e-07 6.21016e-07 0.0005 
1221 1 -0.00475989 -0.00887549 0.000498655 -1.53454e-05 5.58929e-06 -2.1205e-06 -7.33599e-09 -3.44878e-08 -3.99793e-09 -2.01771e-08 -1.2043e-07 6.22554e-07 0.0005 
388 1 -0.0032165 -0.00875348 0.000499763 8.2519e-06 -4.95619e-06 -1.98707e-06 -7.43345e-08 -2.76715e-08 -1.71507e-08 -3.07311e-09 -7.4922e-08 5.95686e-07 0.0005 
823 1 -0.00236353 -0.00927533 0.000499777 5.61178e-06 -2.52286e-05 3.02486e-07 -7.2629e-08 -1.33796e-09 -1.39099e-08 1.33073e-09 -7.13867e-08 5.82735e-07 0.0005 
714 1 -0.00108417 -0.00881278 0.000498313 -1.4029e-06 -5.06943e-06 5.5941e-08 -5.6531e-09 -2.65866e-09 -1.47307e-08 -3.11028e-09 -9.92975e-08 5.57225e-07 0.0005 
462 1 -8.68321e-05 -0.00886803 0.000498339 5.67504e-08 -1.88215e-05 -1.06901e-05 -1.31986e-08 -8.71041e-09 -6.9391e-09 -4.08207e-08 -4.43379e-08 5.20789e-07 0.0005 
529 1 -0.0102054 -0.00860746 0.000499937 -5.34337e-06 1.01068e-05 -2.5708e-06 2.79404e-09 -1.86459e-09 1.41918e-08 1.28665e-08 -2.07579e-07 8.25603e-07 0.0005 
359 1 -0.0093379 -0.00811172 0.000498248 -7.36813e-07 8.32261e-06 -6.7856e-06 2.36496e-08 -1.91686e-08 1.82865e-08 -1.1426e-07 -1.25229e-07 6.01473e-07 0.0005 
1505 1 -0.00808233 -0.00836683 0.000499682 -6.32088e-05 -2.95378e-05 2.75706e-06 -7.29793e-09 3.10757e-08 -2.59449e-08 -1.38624e-07 -8.78598e-08 6.01749e-07 0.0005 
2252 1 -0.00613434 -0.00797335 0.000499392 -2.39622e-05 -1.61279e-05 1.47277e-07 8.5078e-09 1.10461e-08 2.12748e-09 -6.81919e-08 -6.84914e-08 6.47776e-07 0.0005 
2042 1 -0.00233809 -0.00827561 0.000499785 1.12291e-05 -5.78099e-06 -1.172e-06 -2.64086e-08 6.69412e-08 1.96197e-09 5.03991e-10 -8.43391e-08 6.1572e-07 0.0005 
1539 1 -0.0108362 -0.00780023 0.000497895 7.48443e-07 -4.06627e-06 6.31184e-07 3.08632e-08 -9.1694e-08 -1.31189e-08 7.97316e-08 -1.76568e-07 9.55865e-07 0.0005 
986 1 -0.00812992 -0.00736809 0.000499697 -0.000251578 -2.37148e-05 3.51623e-06 -8.14384e-08 4.20173e-08 -1.21914e-08 -1.84114e-07 -6.35978e-08 5.37547e-07 0.0005 
1847 1 -0.00709638 -0.00770431 0.000498242 -2.11528e-05 1.1259e-05 -1.4916e-05 -2.81888e-08 4.24012e-08 -5.0115e-09 -1.1731e-07 -5.68465e-08 6.58504e-07 0.0005 
1447 1 -0.00561494 -0.0071191 0.000499697 -2.80017e-05 -1.01267e-05 1.44799e-05 -2.35033e-08 -1.14744e-08 2.55361e-08 -4.54113e-08 -4.42667e-08 6.31986e-07 0.0005 
1848 1 -0.0046177 -0.00724179 0.00049798 -5.36655e-06 -9.84014e-06 -8.83037e-06 -4.29059e-08 -3.39529e-08 -3.9819e-09 -5.15667e-08 1.46103e-09 6.57479e-07 0.0005 
2417 1 -0.00359462 -0.00736468 0.00049929 -1.5714e-05 3.77161e-06 -9.4944e-06 -1.57598e-08 6.03407e-09 -6.78275e-09 -4.62896e-08 -1.76672e-08 6.38787e-07 0.0005 
1462 1 -0.00259698 -0.00730941 0.000497786 -2.39563e-05 -2.37643e-05 2.94202e-06 -4.31824e-08 -2.55001e-08 1.18518e-09 -3.01288e-08 -6.35495e-08 6.17222e-07 0.0005 
46 1 -0.00132116 -0.00784181 0.000499649 2.4929e-05 5.66022e-06 4.64512e-06 -1.39501e-08 -1.9461e-08 -6.49779e-09 3.13968e-08 -2.00801e-07 6.81854e-07 0.0005 
1432 1 -0.000183813 -0.00787381 0.000498928 -3.04063e-05 -2.21775e-05 -1.85243e-06 -1.82967e-09 -1.72126e-08 1.48099e-08 2.1814e-08 -1.03755e-07 5.86108e-07 0.0005 
2195 1 -0.0116007 -0.00660519 0.000498125 -3.37084e-06 -4.71818e-06 -3.63017e-06 -3.58729e-08 -1.38514e-08 -9.17567e-09 1.98048e-07 -7.6401e-08 1.09695e-06 0.0005 
1429 1 -0.0105949 -0.00682979 0.000499787 5.42179e-05 3.12273e-05 7.68448e-07 -2.15675e-07 4.1671e-08 4.96801e-09 9.37828e-08 -8.84484e-08 6.65847e-07 0.0005 
551 1 -0.00959983 -0.00692901 0.000497763 2.49464e-05 -9.49104e-06 -9.38111e-06 -1.1314e-07 -1.6922e-08 -3.3402e-09 -3.45014e-08 -8.22152e-08 6.06695e-07 0.0005 
490 1 -0.00778684 -0.00635055 0.000498629 -4.21311e-05 -2.21141e-06 -6.93277e-06 -5.97823e-09 -1.0434e-08 -5.1335e-08 -1.93769e-07 -4.4917e-08 5.9269e-07 0.0005 
1485 1 -0.00646766 -0.00656404 0.00049944 -5.23935e-05 -3.04989e-05 1.77933e-06 2.47874e-08 -1.84772e-08 -8.63305e-08 -9.28128e-08 -5.70054e-08 6.38933e-07 0.0005 
74 1 -0.00405005 -0.00639658 0.000499605 -4.00588e-05 -2.2888e-05 -8.96968e-06 -2.68944e-08 -1.2301e-08 -7.40816e-09 3.10691e-08 4.14148e-08 5.818e-07 0.0005 
606 1 -0.0109836 -0.005819 0.000499938 -1.20875e-06 -7.14477e-06 -9.24843e-07 -5.58381e-08 2.10238e-08 -5.70505e-09 1.65399e-07 -4.34506e-08 7.31434e-07 0.0005 
1293 1 -0.0100016 -0.00600431 0.000498976 -2.72999e-06 -1.07805e-05 -5.01004e-06 -7.11082e-08 -4.46125e-08 -7.33067e-09 1.30781e-07 -2.81935e-08 6.33509e-07 0.0005 
1263 1 -0.00884538 -0.00627269 0.000499782 -0.000172766 0.000254177 2.33261e-06 -2.76931e-08 -3.47705e-09 1.7049e-08 -8.6311e-08 -7.39069e-08 5.5894e-07 0.0005 
1248 1 -0.00701788 -0.00571169 0.000499624 -1.01998e-05 1.374e-05 -3.2975e-06 -9.27745e-08 -6.88001e-08 -8.74819e-09 -1.53871e-07 -2.75327e-08 6.15803e-07 0.0005 
1101 1 -0.00560412 -0.00601307 0.000497846 -4.08488e-05 -1.015e-05 -1.55099e-06 -3.57062e-08 9.60901e-09 2.10187e-09 -3.05473e-08 -2.55014e-08 6.37644e-07 0.0005 
817 1 -0.00467699 -0.00561723 0.000498884 -3.4186e-05 -6.98816e-06 -4.82596e-06 -3.72306e-08 3.99335e-08 -8.90803e-09 3.26835e-08 5.32305e-08 5.82355e-07 0.0005 
1969 1 -0.00335351 -0.00559098 0.000498407 -2.90126e-05 -1.27931e-05 -8.15028e-06 -3.36673e-08 -5.35525e-09 -6.76931e-09 -1.13622e-07 -7.80174e-10 5.66403e-07 0.0005 
266 1 -0.00225386 -0.00609155 0.000497765 -4.14417e-05 -3.33042e-05 -3.21902e-07 -2.457e-08 -1.6488e-08 -9.33506e-09 -1.68136e-07 -7.80804e-08 5.59076e-07 0.0005 
1477 1 -0.000920239 -0.00626711 0.000498222 -3.6722e-05 -3.19938e-06 5.02963e-06 -2.90062e-08 -8.06938e-08 7.84415e-09 1.16731e-08 -1.2337e-07 6.55669e-07 0.0005 
740 1 -8.87783e-05 -0.00558931 0.000499142 -1.33758e-05 -5.93684e-05 -7.30184e-06 -1.05479e-08 -8.80039e-08 -5.88584e-09 1.16642e-07 -5.2023e-08 5.35757e-07 0.0005 
1091 1 -0.0121734 -0.00548383 0.000497798 -8.20086e-07 -3.01798e-06 -1.75826e-06 -5.55386e-09 -5.47557e-09 -7.29128e-09 1.55662e-07 -4.2712e-08 1.13506e-06 0.0005 
900 1 -0.0113655 -0.00489519 0.000499722 2.86452e-06 -5.54091e-06 -1.12942e-06 -2.13478e-08 2.58556e-08 -1.05902e-08 1.08548e-07 -4.59454e-08 6.09579e-07 0.0005 
1315 1 -0.0103095 -0.00483997 0.000497717 -2.66659e-06 -9.89182e-07 -3.35363e-06 -3.49613e-08 -3.51717e-08 -2.03513e-08 1.06019e-07 -3.03738e-08 6.19258e-07 0.0005 
53 1 -0.00868021 -0.00528403 0.000497134 -6.73612e-06 -3.23133e-06 -3.68899e-07 -9.70412e-08 1.90482e-08 -1.71564e-08 -3.69331e-08 -9.8246e-08 5.84016e-07 0.0005 
1403 1 -0.00564764 -0.00495072 0.000499722 -2.75265e-05 -2.15054e-05 -5.17581e-06 -9.52947e-09 3.80947e-08 1.61285e-08 -2.60787e-08 3.02589e-08 5.94483e-07 0.0005 
2181 1 -0.00394984 -0.00478971 0.00049852 -2.10097e-05 -1.90598e-06 -1.42404e-05 -3.24655e-08 2.27805e-08 -1.37014e-08 -1.09379e-07 2.04242e-08 5.50168e-07 0.0005 
152 1 -0.00257405 -0.004967 0.000499698 -1.47918e-05 -4.87798e-06 7.87887e-06 -2.89016e-08 1.77141e-08 1.96381e-08 -1.4616e-07 9.73246e-09 6.54808e-07 0.0005 
262 1 -0.000968049 -0.0051135 0.000499365 -4.19104e-06 -7.08912e-05 1.27002e-05 -4.72447e-08 -6.15625e-09 -1.80138e-08 1.39658e-08 1.30056e-08 6.78698e-07 0.0005 
890 1 -0.0125487 -0.00455791 0.000499171 1.81735e-06 -1.94783e-06 -1.06464e-06 -9.99405e-09 -3.34944e-09 -7.15714e-10 6.83763e-08 -3.32083e-08 1.03217e-06 0.0005 
2 1 -0.0108921 -0.00401476 0.0004997 7.81778e-06 -9.22852e-06 -5.23001e-06 -8.05443e-08 3.0973e-08 -5.76778e-09 4.8127e-08 -5.4875e-08 5.61385e-07 0.0005 
12 1 -0.00939817 -0.00443003 0.000499383 2.33673e-06 -1.29062e-05 -2.41807e-06 -3.07447e-08 1.24298e-08 1.71827e-08 -5.26855e-10 -6.64241e-08 5.95688e-07 0.0005 
1415 1 -0.00839775 -0.0043261 0.000498543 1.05355e-05 -5.04705e-06 7.65974e-07 -8.07107e-08 2.00898e-08 -6.88329e-09 -2.66833e-08 -7.41179e-08 5.88256e-07 0.0005 
93 1 -0.0072911 -0.0046468 0.000499439 -9.45861e-05 -0.000626503 8.16107e-07 -6.37904e-08 5.74172e-08 4.40422e-09 -4.96857e-08 -6.02865e-08 6.04784e-07 0.0005 
2064 1 -0.00595726 -0.00400035 0.000497162 1.22664e-05 -3.4575e-06 -1.35736e-06 -4.73867e-08 -7.99394e-09 -1.53813e-08 -9.47183e-09 5.22086e-08 5.80144e-07 0.0005 
1452 1 -0.00495736 -0.00399862 0.000499308 -1.51177e-05 2.25793e-05 -1.17451e-05 -2.82244e-08 -7.56265e-09 -1.25602e-08 -4.07245e-08 3.58368e-08 5.58502e-07 0.0005 
1459 1 -0.00316993 -0.00416516 0.000498053 -1.62265e-05 -1.33505e-06 -7.31911e-06 -1.79907e-08 2.74098e-08 -2.35076e-09 -1.36505e-07 4.23261e-08 6.63162e-07 0.0005 
1507 1 -0.0017365 -0.00442288 0.000499865 -3.64343e-06 -1.37047e-05 1.7495e-07 9.7398e-09 -4.57461e-08 1.57071e-08 -7.50496e-08 6.518e-08 6.8937e-07 0.0005 
2217 1 -0.00078127 -0.00413109 0.000498558 -6.11984e-06 -6.63538e-06 -4.0279e-06 6.76348e-09 -3.15415e-08 -3.65651e-09 6.06303e-08 1.40544e-07 6.95297e-07 0.0005 
982 1 -0.0128873 -0.00348528 0.000498221 3.65805e-06 -8.47591e-06 -1.78291e-06 6.39653e-09 -2.05402e-08 -5.88757e-09 4.28366e-08 -9.75861e-11 1.01842e-06 0.0005 
1544 1 -0.00998426 -0.00359538 0.000499784 0.000272025 -0.000556004 2.01795e-07 -1.93178e-08 -2.08062e-08 -1.99865e-09 -4.96061e-09 -4.05336e-08 5.91126e-07 0.0005 
2007 1 -0.00898714 -0.00351902 0.000500601 -1.22864e-07 -1.24662e-05 -7.42185e-06 -2.64114e-08 2.9208e-08 -9.06017e-09 -6.32016e-08 -3.53424e-08 6.23775e-07 0.0005 
1617 1 -0.00781867 -0.00350892 0.000498594 1.14843e-05 -5.30448e-06 -7.25806e-06 -9.52318e-08 -6.58744e-08 1.3293e-08 -1.11043e-08 -2.70722e-08 6.08497e-07 0.0005 
230 1 -0.00403962 -0.00359648 0.000498806 -1.14067e-05 7.93101e-06 -4.65496e-06 9.33477e-09 -7.73463e-09 3.89586e-09 -6.49206e-08 4.59553e-08 5.56025e-07 0.0005 
1067 1 -0.00238708 -0.00354316 0.000498194 -2.12424e-05 -6.30348e-06 -2.49714e-06 5.927e-09 1.49826e-08 -5.02522e-09 -1.14401e-07 8.56658e-08 6.30213e-07 0.0005 
9 1 -0.0130613 -0.00247863 0.000499642 5.69701e-06 -1.50875e-05 -3.15317e-06 -1.17276e-08 2.66688e-09 2.39751e-09 6.03563e-08 3.60675e-08 1.03297e-06 0.0005 
2406 1 -0.0116635 -0.00306495 0.000498024 8.22524e-06 -8.80649e-06 -2.9357e-06 -5.65491e-08 2.38494e-08 -1.18864e-08 5.39197e-08 -6.0428e-09 5.96331e-07 0.0005 
178 1 -0.00953622 -0.0026833 0.000499783 7.37551e-06 -1.33762e-05 -3.10229e-06 -9.19256e-08 6.48455e-09 -1.30143e-08 -4.52759e-08 -5.82364e-09 6.23158e-07 0.0005 
1238 1 -0.00853019 -0.00263045 0.000498692 -8.70678e-06 -1.47794e-05 4.20095e-09 -3.36671e-09 1.37623e-08 -2.19539e-08 -3.1309e-08 -1.06251e-09 6.16777e-07 0.0005 
1610 1 -0.0070414 -0.00270698 0.000499785 -2.65997e-05 -3.8092e-05 -4.2324e-06 -6.73004e-08 2.94711e-09 -2.61902e-08 2.68456e-08 1.5446e-08 5.9367e-07 0.0005 
391 1 -0.00605703 -0.00288302 0.000499261 2.22509e-06 5.99859e-06 2.57141e-07 -8.36613e-09 5.52938e-10 -6.73414e-09 6.98831e-08 2.20111e-08 5.46198e-07 0.0005 
1178 1 -0.00506418 -0.00300272 0.000499785 6.28481e-06 -2.39777e-05 -1.40929e-06 -7.02502e-08 -1.08747e-08 -4.55375e-09 3.85371e-08 3.70065e-08 5.60103e-07 0.0005 
1798 1 -0.00415482 -0.00258676 0.000499729 1.84124e-07 8.13139e-06 6.60798e-06 -3.23023e-08 3.79543e-09 7.30012e-09 3.86093e-08 4.17307e-08 5.69167e-07 0.0005 
619 1 -0.00323151 -0.00300763 0.00049975 -1.84799e-06 -9.78561e-06 5.35776e-07 -8.58609e-10 8.40691e-08 -5.77032e-09 -7.75594e-08 8.40187e-08 5.54781e-07 0.0005 
38 1 -0.00229452 -0.00250907 0.000499541 -0.00148148 0.000234102 -4.57346e-06 -1.78149e-08 -1.31004e-07 1.90438e-08 -9.65288e-08 1.09451e-07 5.49754e-07 0.0005 
736 1 -0.000791861 -0.00295487 0.000499662 -6.08202e-07 -1.89154e-05 1.81765e-06 -9.01032e-09 -3.3593e-08 -1.33278e-08 -4.13866e-08 7.88774e-08 6.6394e-07 0.0005 
186 1 -0.0124292 -0.00170419 0.0004984 -4.00532e-06 -4.8424e-07 9.83616e-07 -1.77237e-08 5.22731e-09 -2.94677e-09 9.60942e-08 6.33673e-08 6.90579e-07 0.0005 
459 1 -0.0114534 -0.00208873 0.000499464 8.14e-07 -5.16779e-06 2.76571e-06 -2.23012e-08 8.27438e-09 -4.09392e-09 1.01582e-07 5.52245e-08 6.12163e-07 0.0005 
866 1 -0.0104726 -0.00233234 0.000499214 4.43327e-06 -4.405e-06 -2.66237e-06 -5.23116e-08 4.76124e-09 1.2799e-08 3.98233e-08 9.77757e-09 5.72604e-07 0.0005 
1411 1 -0.00937901 -0.00168236 0.000499192 3.38229e-06 -4.53173e-07 -3.20872e-06 -5.56459e-08 9.29736e-10 -1.0421e-08 2.7587e-08 7.15155e-09 5.30999e-07 0.0005 
1278 1 -0.00775239 -0.00200362 0.000499824 -5.30871e-06 -1.19232e-05 1.30273e-06 -2.86234e-08 4.89138e-08 -1.42109e-08 1.33756e-09 2.99928e-08 6.00223e-07 0.0005 
62 1 -0.00596027 -0.00187149 0.000499741 -1.1289e-05 -1.77641e-05 3.78328e-07 2.6422e-08 1.1296e-07 7.59839e-09 5.55012e-08 1.67303e-08 5.53379e-07 0.0005 
1669 1 -0.0049694 -0.00200678 0.000499775 -1.71943e-05 6.17063e-06 -1.51542e-06 -1.02286e-07 -2.73391e-08 -2.02624e-08 5.09342e-08 9.93843e-09 5.47713e-07 0.0005 
695 1 -0.00125441 -0.00197936 0.000498655 2.16373e-05 1.69818e-05 1.98946e-06 -1.29625e-07 -6.4219e-10 8.9505e-09 -7.6582e-08 4.40908e-08 6.491e-07 0.0005 
1530 1 -0.0132934 -0.00120324 0.000499498 9.73778e-07 4.17164e-06 -2.19888e-07 -1.13713e-08 1.12976e-08 -1.49109e-08 7.75283e-08 8.83891e-08 1.08789e-06 0.0005 
1654 1 -0.0107157 -0.00136315 0.000499029 -5.78057e-06 -2.08206e-06 5.65762e-07 -9.05766e-09 1.00802e-08 -8.3929e-09 9.92778e-08 8.44745e-08 6.24237e-07 0.0005 
299 1 -0.00770297 -0.000984503 0.000499784 2.22979e-05 5.0007e-05 1.82455e-07 -3.15343e-10 -2.90683e-08 -2.99546e-09 -3.34413e-08 8.54081e-08 5.69672e-07 0.0005 
98 1 -0.00667979 -0.0010629 0.000498479 -2.38653e-06 -3.72533e-06 -2.57455e-06 -2.10969e-08 4.33112e-08 5.83162e-09 1.2087e-08 4.41004e-08 5.67349e-07 0.0005 
1060 1 -0.00391575 -0.00157335 0.000498438 -2.12061e-05 -9.88501e-06 -8.48362e-06 -5.71226e-08 -5.33693e-08 -1.08231e-08 -1.48876e-08 -4.28846e-08 5.06225e-07 0.0005 
781 1 -0.00216816 -0.00126688 0.000499794 -5.06572e-05 -1.35738e-06 -1.09169e-05 3.14848e-08 -2.89383e-07 -1.44383e-07 -1.27686e-07 -5.37491e-08 5.33253e-07 0.0005 
1955 1 -0.000345101 -0.00148472 0.000499533 3.98827e-05 3.52632e-05 -1.64305e-05 -6.38399e-08 -3.89708e-08 -4.53353e-09 -9.53869e-09 4.1356e-08 5.89758e-07 0.0005 
1675 1 -0.0124416 -0.000620488 0.000499248 3.21355e-06 3.27419e-06 -2.31065e-06 2.87315e-10 7.987e-09 -7.01845e-09 8.76609e-08 1.15298e-07 6.90475e-07 0.0005 
2125 1 -0.0115116 -0.000118499 0.000497858 -8.60764e-06 7.92797e-07 -2.36305e-06 3.76019e-09 3.5003e-09 -9.67725e-09 9.55328e-09 1.47566e-07 6.64251e-07 0.0005 
2169 1 -0.00953562 -0.000695425 0.000499713 -7.47836e-06 -6.4192e-06 -6.45686e-06 -6.57416e-09 2.42436e-08 -2.32479e-08 3.82718e-08 2.56738e-08 5.2433e-07 0.0005 
6577 1 -0.00859343 -0.000364279 0.000497871 -2.05075e-05 5.94165e-06 -7.90666e-07 1.20171e-08 4.37507e-09 -1.23534e-08 -1.05525e-08 5.62807e-08 5.45441e-07 0.0005 
6638 1 -0.00684177 -7.76992e-05 0.000498735 -5.66532e-06 -6.76111e-06 -5.85483e-06 -4.79069e-08 3.69658e-08 -3.82174e-08 -2.61506e-08 6.91007e-08 5.34318e-07 0.0005 
1600 1 -0.00577174 -0.000646629 0.000498164 -4.88812e-06 -1.53145e-05 -8.03489e-06 -3.19816e-08 7.409e-08 -7.68798e-11 6.34854e-09 1.49765e-08 5.67447e-07 0.0005 
108 1 -0.00326432 -0.000749494 0.000498061 -9.65993e-06 -1.8677e-05 -2.44457e-06 -3.35408e-08 3.80998e-09 -1.19417e-08 -8.29008e-08 -8.84405e-08 5.18623e-07 0.0005 
288 1 -0.00178409 -0.000343629 0.000499152 -1.75134e-05 -1.24327e-05 -5.94926e-06 -2.0322e-08 5.34477e-09 -5.80207e-09 -3.86392e-08 -5.27886e-08 5.52777e-07 0.0005 
1934 1 -0.000389735 -0.00048598 0.000499358 4.52661e-06 3.42286e-05 3.00365e-08 -5.46234e-08 -5.11155e-08 -1.14719e-08 2.59897e-08 3.59023e-08 5.76515e-07 0.0005 
1180 1 -0.00374226 -0.0128166 0.000926326 -1.70164e-06 -1.7298e-06 -1.56235e-06 -4.9002e-10 -1.04206e-08 5.37688e-09 -6.02176e-09 2.34671e-08 1.24767e-06 0.0005 
1047 1 -0.00271697 -0.0130743 0.00093704 -3.01808e-06 -3.55917e-06 -2.65061e-06 -2.54908e-09 -1.70183e-10 7.24219e-09 -9.41938e-09 1.75544e-08 1.33808e-06 0.0005 
1971 1 -0.000135365 -0.0126747 0.00124965 -4.9706e-05 -3.41304e-05 6.16847e-05 5.77129e-09 3.64257e-09 2.44553e-09 -4.20074e-08 -1.6701e-08 1.27184e-06 0.0005 
2053 1 -0.00467545 -0.0125048 0.000750401 -1.8229e-06 -1.95064e-06 -1.59014e-06 1.62022e-08 -5.88375e-10 -9.34315e-09 -3.43247e-08 4.99785e-08 1.16621e-06 0.0005 
848 1 -0.00142123 -0.0124656 0.00125379 -6.789e-06 1.56345e-05 -5.69916e-06 -1.59166e-08 -1.40807e-09 9.55943e-10 -1.31517e-08 6.75879e-09 1.55391e-06 0.0005 
427 1 -0.00477438 -0.0110317 0.00117872 -1.86519e-05 -3.05387e-05 1.07742e-05 -3.82375e-08 -4.5131e-08 -2.74266e-08 -3.52214e-08 4.09293e-08 1.33515e-06 0.0005 
2081 1 -0.00166528 -0.01069 0.000830235 -2.64531e-05 9.44026e-06 3.27e-05 6.302e-09 1.30867e-08 -2.94194e-09 -3.87868e-08 3.5869e-09 9.85804e-07 0.0005 
1375 1 -0.00811304 -0.00947701 0.000931558 -2.16679e-05 -6.71916e-06 8.52241e-06 1.43816e-08 1.0658e-08 -2.48406e-08 -1.74213e-07 -1.55789e-07 1.08823e-06 0.0005 
1658 1 -0.00634273 -0.0100617 0.000540524 -2.31858e-05 -1.43928e-05 -1.05367e-05 -1.2505e-08 -6.7073e-08 5.60239e-09 -8.20946e-08 -3.95897e-08 6.84824e-07 0.0005 
110 1 -0.00455653 -0.01006 0.00108982 -2.99326e-05 -3.72415e-05 -6.77751e-06 -9.23692e-09 -3.67877e-08 -3.50409e-08 -4.20732e-08 -1.50258e-08 1.2363e-06 0.0005 
1487 1 -0.00223852 -0.00992643 0.00124836 -3.09265e-05 -1.45288e-05 6.00196e-06 -2.50998e-08 4.09762e-08 -4.02822e-08 -4.34208e-08 -3.9781e-08 1.33279e-06 0.0005 
2090 1 -0.00143945 -0.00973385 0.000650146 -2.77388e-05 -8.30987e-06 -7.42536e-05 2.18952e-08 1.14816e-08 3.13821e-08 -2.14809e-08 -4.64666e-08 6.85783e-07 0.0005 
2461 1 -0.00958828 -0.00929253 0.00111512 -2.52461e-06 -2.98866e-06 -1.53779e-06 3.17264e-09 1.27521e-08 -3.51653e-08 -7.03096e-08 -1.58804e-07 1.35983e-06 0.0005 
1750 1 -0.00397497 -0.00925474 0.00098711 -4.45692e-05 -3.19305e-05 -1.43685e-05 -1.01534e-09 -3.5445e-08 1.1756e-08 -3.98719e-09 -9.45049e-08 1.1896e-06 0.0005 
243 1 -0.0069516 -0.00838956 0.00122347 6.35265e-06 -3.65969e-06 -2.64833e-05 -4.18137e-08 1.04932e-07 3.09938e-08 -8.71364e-08 -2.56681e-08 1.63202e-06 0.0005 
948 1 -0.00517884 -0.00801586 0.000789723 -1.86538e-05 1.19687e-06 -1.45151e-05 3.76191e-08 -7.30721e-08 -2.39934e-08 -5.6308e-08 -5.5162e-08 1.0004e-06 0.0005 
793 1 -0.00403505 -0.00822984 0.000735463 -3.48881e-06 -1.80092e-06 -3.12715e-06 -2.49966e-08 -1.70993e-08 1.15365e-08 -4.48715e-08 -4.76871e-08 8.30134e-07 0.0005 
1694 1 -0.00170414 -0.00853264 0.00122918 3.03591e-06 7.08534e-06 9.9161e-06 3.39465e-08 1.16574e-08 -1.64949e-08 -1.85184e-08 -1.05319e-07 1.34144e-06 0.0005 
842 1 -0.0100229 -0.00764346 0.00105273 2.42944e-06 2.16459e-06 -3.28024e-06 -1.67611e-08 -4.12033e-08 -1.19107e-08 -4.0266e-08 -1.56542e-07 1.22889e-06 0.0005 
239 1 -0.00901072 -0.00741742 0.0011394 -1.96683e-05 -3.80178e-05 -4.7195e-06 -9.14325e-08 1.07716e-08 -1.14905e-08 -1.66226e-07 -9.34489e-08 1.32516e-06 0.0005 
13 1 -0.00305273 -0.00787052 0.00118579 -6.13694e-05 -3.12164e-05 -2.25405e-05 -1.49963e-07 1.69618e-08 -3.84566e-08 -2.44898e-08 -5.01314e-08 1.40691e-06 0.0005 
1059 1 -0.00717486 -0.00674304 0.00118253 -6.7231e-05 -2.11966e-05 -7.08376e-06 -8.60596e-08 -1.99385e-08 -1.19664e-07 -1.81698e-07 -5.9059e-08 1.38148e-06 0.0005 
830 1 -0.00488255 -0.00642489 0.00105059 -3.97884e-05 -2.43619e-05 -1.35933e-05 -3.93548e-08 -5.33723e-09 -2.06115e-08 1.90557e-08 -1.0236e-09 1.19806e-06 0.0005 
515 1 -0.00310621 -0.00650789 0.000806144 -4.07377e-05 -2.06468e-05 2.40119e-07 -2.47763e-08 1.36797e-09 -2.08305e-09 -1.2818e-07 -4.24279e-08 8.80583e-07 0.0005 
2336 1 -0.00168244 -0.00691078 0.000543219 -3.0574e-05 -1.13994e-05 1.62445e-06 -4.2359e-08 -4.75771e-08 -1.40153e-08 -4.39796e-08 -1.19279e-07 6.02848e-07 0.0005 
2421 1 -0.000539555 -0.00706733 0.000969222 -6.48403e-05 -2.87728e-05 -2.73824e-05 -6.09049e-09 -3.43147e-08 2.04443e-08 3.36449e-08 -1.68623e-07 1.22617e-06 0.0005 
1645 1 -0.00625285 -0.00560074 0.00113303 -2.4707e-05 -9.74105e-06 8.69668e-06 -3.16991e-08 7.7173e-09 2.16543e-08 -4.54799e-08 -4.07831e-08 1.3799e-06 0.0005 
100 1 -0.0040133 -0.00569304 0.0012414 -4.49849e-05 -7.21247e-06 -8.99747e-06 -5.62781e-08 -6.17336e-11 -2.25033e-08 3.2345e-08 4.80554e-08 1.38123e-06 0.0005 
2208 1 -0.0015264 -0.00571552 0.00106889 -6.49618e-05 -2.30165e-05 4.78774e-06 -9.11572e-09 -2.80341e-08 -1.21267e-08 -7.0746e-08 -6.3559e-08 1.29e-06 0.0005 
220 1 -0.00940599 -0.00551956 0.0011375 -7.29956e-06 -1.62298e-05 -7.12937e-06 -8.57166e-08 4.92371e-09 -3.5178e-08 5.98351e-08 -6.6457e-08 1.35916e-06 0.0005 
1211 1 -0.00784997 -0.00549413 0.00100879 -1.28549e-05 -1.5281e-05 -7.89212e-06 -1.03924e-07 9.69371e-10 -3.1818e-08 -1.04955e-07 -6.70993e-08 1.1341e-06 0.0005 
565 1 -0.00328788 -0.00481786 0.00124638 -2.84031e-05 1.67786e-07 -2.49413e-05 -5.26723e-08 1.70781e-08 4.55773e-09 -1.10163e-07 1.24543e-08 1.41214e-06 0.0005 
2300 1 -0.0118214 -0.00398001 0.000867082 5.40603e-06 -7.93131e-06 -6.65596e-06 -3.77318e-08 5.41226e-09 -1.13581e-08 5.22819e-08 -2.83419e-08 1.08923e-06 0.0005 
1986 1 -0.00647179 -0.00462868 0.00107687 3.34164e-05 -7.44568e-07 1.00583e-05 -8.57774e-08 -2.2743e-08 -3.04178e-08 -4.30307e-08 1.34571e-08 1.23063e-06 0.0005 
1236 1 -0.00459797 -0.00458722 0.00123007 -3.28959e-05 -1.09538e-05 -2.23083e-05 -7.06853e-08 -2.60113e-08 -2.62592e-08 -8.95019e-08 5.51817e-09 1.33771e-06 0.0005 
483 1 -0.00250352 -0.00419844 0.00124178 -2.61466e-05 -5.74778e-06 -3.95092e-06 -4.8214e-08 -5.66409e-09 -3.48434e-09 -1.79744e-07 3.89953e-08 1.64061e-06 0.0005 
696 1 -0.0068751 -0.00370608 0.000761801 -2.06759e-06 -2.88449e-05 -1.1132e-05 -9.14294e-08 -7.385e-08 1.89812e-08 -1.20772e-08 -1.04684e-08 8.5698e-07 0.0005 
704 1 -0.00147909 -0.00354941 0.000916014 -1.86578e-05 -2.43938e-05 -3.92801e-06 -3.21187e-08 -3.57673e-08 -3.91491e-08 -3.20476e-08 8.93429e-08 1.11384e-06 0.0005 
2160 1 -7.56891e-05 -0.00355933 0.000913261 -1.7494e-05 8.45694e-06 -1.51388e-05 -2.42169e-08 -1.22918e-08 -5.00701e-08 8.80208e-10 6.4773e-08 1.0517e-06 0.0005 
532 1 -0.0107951 -0.00314479 0.000982734 6.91149e-06 -1.201e-05 -9.62406e-06 -8.63815e-08 7.1893e-09 -3.834e-09 1.62591e-08 -4.72179e-08 1.11592e-06 0.0005 
1201 1 -0.00783603 -0.0027966 0.00119891 3.83459e-06 -2.82721e-05 3.33264e-06 -4.18294e-08 1.4034e-08 -4.70525e-08 2.33823e-09 4.62575e-09 1.45748e-06 0.0005 
2224 1 -0.00855763 -0.00180144 0.0010565 -2.059e-06 -1.33889e-05 2.9328e-06 -3.98845e-08 9.38701e-09 -3.35334e-08 -1.33965e-08 2.37683e-08 1.13349e-06 0.0005 
1596 1 -0.00697476 -0.00180686 0.00109507 -1.13566e-05 -4.31198e-06 -8.42426e-06 -2.93079e-08 4.59758e-08 1.63466e-10 -8.81424e-10 4.05311e-08 1.16386e-06 0.0005 
2261 1 -0.00298227 -0.00176417 0.000799547 -1.87855e-05 3.68499e-05 -8.58887e-06 -9.81024e-08 -2.71172e-07 -5.5799e-08 -8.78074e-08 2.01891e-09 8.55609e-07 0.0005 
78 1 -0.0116483 -0.00115301 0.000789097 -3.09968e-06 -3.52265e-06 -2.4154e-06 -1.22907e-08 8.92206e-09 -1.49085e-09 1.3235e-07 1.13699e-07 1.00907e-06 0.0005 
367 1 -0.0100631 -0.0011404 0.00122293 -3.6001e-06 -3.78041e-06 -2.20891e-06 -1.61688e-08 6.1455e-08 -2.57687e-08 9.33909e-08 4.61974e-08 1.36694e-06 0.0005 
5 1 -0.00506655 -0.0011456 0.000999057 -2.76838e-05 -1.36698e-05 3.92667e-06 -5.80856e-08 -1.32069e-08 -5.77089e-08 1.7052e-08 -4.41486e-08 1.03169e-06 0.0005 
1357 1 -0.00117129 -0.00104924 0.000852937 3.59899e-05 2.58994e-05 -7.19667e-06 -6.96525e-08 -9.50053e-09 -1.51399e-08 -6.2168e-08 -8.60533e-09 9.80483e-07 0.0005 
967 1 -0.0133496 -0.00020764 0.000558509 1.13001e-06 3.31443e-06 3.15011e-07 -1.88669e-10 9.84644e-09 -1.23364e-08 8.06099e-08 1.53134e-07 1.12923e-06 0.0005 
2095 1 -0.0104808 -0.000401978 0.000633345 -6.84654e-06 -3.1715e-06 1.85364e-07 -2.03283e-08 1.62833e-08 -2.92906e-08 3.59255e-08 1.02917e-07 7.34424e-07 0.0005 
42 1 -0.004184 -0.000692279 0.000886036 -3.05847e-05 -1.57178e-05 -8.90662e-06 -4.91899e-08 -4.27809e-08 -5.23182e-08 -1.09532e-08 -1.19595e-07 8.59987e-07 0.0005 
548 1 -0.00252353 -0.000550505 0.00113821 -1.50537e-05 -2.2846e-05 -1.42439e-05 -3.28521e-08 2.43775e-08 1.17088e-08 -9.46283e-08 -9.32945e-08 1.3024e-06 0.0005 
805 1 -0.00292416 -0.0130102 0.00190945 -1.37679e-05 -9.57901e-06 -8.60351e-06 -1.76448e-09 2.82043e-09 8.79694e-10 -4.38736e-08 1.42465e-08 2.13985e-06 0.0005 
643 1 -0.00199093 -0.0132026 0.00161171 -5.85989e-06 5.79722e-06 4.52299e-06 -8.45883e-09 -4.29436e-09 4.47082e-09 -2.83342e-08 6.31848e-09 1.91378e-06 0.0005 
1951 1 -0.000905518 -0.0133197 0.00131258 5.78006e-06 7.02256e-06 -3.50605e-05 2.71062e-08 -7.59658e-09 -5.25357e-08 -2.29245e-08 2.24863e-09 1.60844e-06 0.0005 
2416 1 -0.000179229 -0.0133488 0.00199898 -3.11431e-05 -1.46868e-06 8.17486e-06 -1.27277e-08 2.87294e-09 -6.1365e-08 -8.19108e-08 -1.97579e-09 2.09015e-06 0.0005 
2017 1 -0.00570999 -0.0119633 0.00127087 -8.93638e-06 7.16798e-07 1.56371e-06 1.48357e-08 -5.86223e-08 -4.23201e-08 -7.69065e-08 8.34833e-08 1.59473e-06 0.0005 
527 1 -0.00434986 -0.0126221 0.00169525 -1.27177e-05 5.98379e-07 -1.58386e-05 -4.83588e-09 1.19491e-09 -1.26231e-09 -2.42457e-08 2.93662e-08 1.90224e-06 0.0005 
2327 1 -0.00336489 -0.0120803 0.00148578 -4.30666e-06 -4.512e-06 -5.68563e-07 5.03607e-09 -8.57182e-09 -1.9263e-08 -2.53123e-08 2.63159e-08 1.70769e-06 0.0005 
886 1 -0.00238607 -0.0122711 0.00142927 -8.37178e-06 2.7116e-06 -1.94595e-05 -3.54261e-09 -1.04686e-09 2.78315e-08 -3.17032e-08 9.41478e-09 1.63423e-06 0.0005 
125 1 -0.000677178 -0.0119491 0.00167145 -2.14637e-05 1.85847e-06 2.75872e-05 2.12296e-08 2.38637e-08 -4.74708e-08 -6.65774e-08 8.24569e-09 1.86896e-06 0.0005 
2456 1 -0.00683057 -0.0114708 0.00139764 -1.84687e-05 8.06665e-06 1.28222e-05 1.70559e-08 -5.00534e-09 2.03845e-08 -9.77477e-08 8.48401e-08 1.68236e-06 0.0005 
461 1 -0.00542595 -0.011256 0.00193144 -3.27986e-05 -3.16125e-05 -8.30089e-06 -6.29635e-08 -1.08307e-08 3.73329e-08 -5.45212e-08 6.21069e-08 2.14756e-06 0.0005 
2263 1 -0.00451816 -0.0116728 0.00195783 -2.20043e-05 -1.1825e-05 9.54207e-06 -3.25276e-08 2.80982e-08 -8.01935e-08 -2.29417e-08 4.03227e-08 2.14455e-06 0.0005 
1851 1 -0.00379725 -0.011197 0.00131099 -2.23801e-05 -1.98884e-05 1.96144e-06 -3.93594e-08 -3.94352e-08 -7.80283e-08 -2.37956e-08 5.73533e-08 1.55309e-06 0.0005 
947 1 -0.00270612 -0.0113259 0.00135318 -3.87844e-05 -3.57347e-05 -3.72134e-06 3.3409e-08 4.18001e-08 1.50109e-08 -4.25899e-08 3.41234e-08 1.57002e-06 0.0005 