ITEM: TIMESTEP
40000
ITEM: NUMBER OF ATOMS
10000
ITEM: BOX BOUNDS mm mm mm
-0.015 0.015
-0.015 0.015
-0.001 0.0554
ITEM: ATOMS id type x y z vx vy vz fx fy fz f_dragforce[1] f_dragforce[2] f_dragforce[3] radius 
1359 1 -0.0014858 -0.013264 0.0004998 -1.88092e-05 4.1166e-06 -6.11898e-06 -1.5526e-07 -2.04607e-08 2.47417e-09 1.09241e-08 4.34253e-09 1.13213e-06 0.0005 
637 1 -0.00304773 -0.0122421 0.000498144 5.65829e-06 -3.4789e-06 -1.81325e-06 8.30831e-09 -1.21577e-08 -9.47578e-09 4.12827e-09 3.92448e-08 7.52445e-07 0.0005 
1496 1 -0.00207169 -0.0124535 0.000498015 9.93204e-07 -6.47557e-06 -6.66376e-06 -5.70557e-09 -2.35212e-08 -1.65931e-08 5.40017e-09 2.23707e-08 8.07834e-07 0.0005 
502 1 -0.000772735 -0.0125201 0.000498024 -2.3925e-06 -2.55227e-05 -4.79407e-06 -7.29195e-09 7.70796e-09 -8.48913e-09 7.64726e-09 4.35101e-09 7.3192e-07 0.0005 
1195 1 -0.00705818 -0.0110984 0.000499146 -1.9858e-06 -3.1543e-06 -7.29342e-07 2.29999e-08 2.93243e-08 -1.55365e-08 -1.34949e-07 3.07697e-08 9.38615e-07 0.0005 
1356 1 -0.00631257 -0.0117637 0.000499257 -6.88952e-07 3.04992e-08 1.15954e-06 -1.56053e-08 7.15981e-09 -4.26868e-09 -1.00258e-07 9.18778e-08 1.06232e-06 0.0005 
939 1 -0.00514981 -0.0116617 0.000499492 -1.42254e-05 -1.49335e-05 -2.10211e-06 -3.3916e-08 -2.0979e-08 1.32178e-08 -4.96778e-08 7.72058e-08 7.92277e-07 0.0005 
1758 1 -0.0041498 -0.011663 0.000499784 1.19466e-05 -1.25606e-05 -2.23007e-06 -7.24299e-09 -2.79885e-08 1.252e-09 -1.32237e-08 5.39895e-08 6.89336e-07 0.0005 
656 1 -0.00321857 -0.0112597 0.000498602 4.5118e-06 -2.84671e-06 -3.98086e-06 -2.73809e-08 -2.0669e-08 4.99902e-11 -1.48643e-08 5.88696e-08 7.06303e-07 0.0005 
758 1 -0.00220807 -0.0114638 0.000498883 8.02476e-06 -4.72751e-06 3.77877e-06 -2.12823e-08 -1.53743e-08 -9.31661e-10 -1.83183e-08 3.60074e-08 7.11388e-07 0.0005 
319 1 -0.00120512 -0.0115139 0.000499753 -1.42979e-05 -2.89965e-05 4.40644e-06 -4.39995e-08 -3.34678e-08 7.71558e-09 -2.5424e-08 2.2221e-08 7.15417e-07 0.0005 
511 1 -1.57419e-05 -0.0111185 0.000496523 4.02877e-06 -4.37748e-06 -2.5731e-06 -1.10615e-08 -2.68444e-08 7.37687e-10 -3.30105e-09 1.30568e-08 6.1857e-07 0.0005 
1144 1 -0.00800367 -0.0106577 0.000499604 9.26058e-07 -1.29778e-05 5.65532e-06 -1.38153e-09 3.53865e-08 -6.1089e-10 -1.93455e-07 -4.95743e-08 8.85123e-07 0.0005 
353 1 -0.00578514 -0.0108902 0.000499532 -2.45688e-05 -1.71794e-05 9.68573e-07 -9.38777e-08 -7.68847e-08 4.76095e-09 -6.90252e-08 3.14813e-08 7.28754e-07 0.0005 
1818 1 -0.00393597 -0.0105667 0.000497847 -6.2788e-06 -1.98637e-05 -1.76013e-07 -9.21863e-10 -7.78216e-09 -1.46271e-08 -1.53076e-08 2.77024e-08 7.03996e-07 0.0005 
1873 1 -0.00258505 -0.0104884 0.000499543 -6.15278e-06 -5.72332e-06 4.96461e-06 -2.53097e-08 -4.4264e-08 -3.65291e-09 -1.60656e-08 1.30275e-08 7.003e-07 0.0005 
2211 1 -0.000755753 -0.0104474 0.000498335 -1.16154e-05 -1.69504e-05 -2.68385e-06 -1.78783e-08 -2.5751e-08 3.48234e-09 -3.1997e-08 -5.68755e-09 6.76358e-07 0.0005 
647 1 -0.00884547 -0.0100003 0.000499276 -3.89315e-08 -4.26766e-06 -2.22455e-07 -1.78461e-08 -8.43084e-10 4.02666e-09 -1.64877e-07 -1.15625e-07 8.66599e-07 0.0005 
542 1 -0.00732986 -0.00991907 0.000499074 -1.56737e-05 -3.35309e-06 -2.08462e-06 3.06331e-08 1.55113e-08 -7.4465e-09 -1.58276e-07 -1.3217e-07 6.72069e-07 0.0005 
1585 1 -0.00535176 -0.00994956 0.000498343 -1.36029e-05 -3.15526e-05 1.74659e-07 7.16109e-09 -7.62491e-08 -3.03723e-09 -2.37074e-08 -4.23324e-08 7.21592e-07 0.0005 
2142 1 -0.00325996 -0.00975256 0.000498872 -1.48678e-05 -1.24623e-05 -2.72928e-06 -6.12775e-09 -1.10782e-08 -1.00302e-08 5.59673e-09 -6.31528e-08 6.78613e-07 0.0005 
2330 1 -0.00886716 -0.00899193 0.000497 -3.05969e-06 -7.86358e-06 -4.44074e-06 9.86624e-09 1.27136e-08 8.60243e-10 -1.55446e-07 -1.82786e-07 6.42844e-07 0.0005 
733 1 -0.00681214 -0.00906389 0.00049888 4.74802e-06 -2.33322e-05 -4.85126e-06 2.73748e-08 1.99476e-08 -1.6281e-08 -9.99416e-08 -1.34051e-07 7.18132e-07 0.0005 
1443 1 -0.00575835 -0.00889918 0.000498947 -9.4994e-06 -1.68709e-05 -5.56946e-06 7.39594e-09 -6.16568e-09 -1.53076e-09 -4.16349e-08 -1.49055e-07 7.10079e-07 0.0005 
1221 1 -0.00475979 -0.00887592 0.000498764 -1.65794e-05 -3.1181e-05 2.45357e-08 1.77154e-08 -7.13155e-09 -1.9067e-08 -6.10229e-09 -1.5697e-07 7.11723e-07 0.0005 
388 1 -0.00321628 -0.00875375 0.000499747 -2.6244e-05 -9.75975e-06 3.32036e-06 -1.39302e-08 2.01335e-08 -1.59188e-08 1.06836e-08 -1.05194e-07 6.79316e-07 0.0005 
823 1 -0.00236378 -0.00927646 0.000499786 1.71568e-06 -2.00109e-05 2.2614e-06 -6.97017e-08 1.37991e-08 -1.45197e-08 1.41634e-08 -9.64037e-08 6.64733e-07 0.0005 
714 1 -0.00108412 -0.00881269 0.000498465 -2.97741e-06 -2.12014e-05 6.43844e-07 -3.34707e-08 -3.43619e-08 -1.06961e-08 8.24569e-09 -1.25348e-07 6.36149e-07 0.0005 
462 1 -8.66898e-05 -0.00886768 0.000498457 -2.35823e-06 -1.52756e-05 -1.2194e-05 4.28065e-09 2.8962e-09 6.61971e-09 -3.76833e-08 -5.99861e-08 5.94196e-07 0.0005 
529 1 -0.0102054 -0.00860752 0.00049994 -9.86032e-07 2.4732e-06 -2.49563e-06 1.75036e-08 -3.52355e-08 -3.90627e-09 2.11109e-08 -2.43337e-07 9.39417e-07 0.0005 
359 1 -0.00933794 -0.00811156 0.000498356 3.53515e-06 -5.09835e-06 -2.96716e-07 -2.76378e-08 6.33073e-09 -3.88393e-09 -1.29647e-07 -1.54407e-07 6.87565e-07 0.0005 
1505 1 -0.0080854 -0.00836865 0.000499659 -1.8875e-05 8.92528e-06 2.79851e-06 3.73652e-08 -2.10501e-08 1.2634e-08 -1.49629e-07 -1.15561e-07 6.86657e-07 0.0005 
2252 1 -0.00613405 -0.00797316 0.000499403 -7.90711e-06 -1.38686e-05 -9.18657e-08 3.33415e-08 -1.4044e-08 1.26659e-09 -6.42422e-08 -9.20768e-08 7.3967e-07 0.0005 
2042 1 -0.00233758 -0.00827625 0.000499788 7.05072e-05 -5.77583e-05 -2.26738e-07 1.12206e-08 -8.80897e-08 2.02224e-10 1.74505e-08 -1.15026e-07 7.01686e-07 0.0005 
1539 1 -0.0108363 -0.00779982 0.000498014 5.41325e-06 4.95109e-06 -1.77022e-06 -3.90636e-08 2.04009e-08 -1.52296e-09 9.53631e-08 -2.07797e-07 1.08792e-06 0.0005 
986 1 -0.00813631 -0.00737006 0.000499754 -2.92527e-05 5.04212e-06 -1.12565e-05 -6.29638e-08 3.81632e-08 -9.91423e-09 -2.0122e-07 -8.12546e-08 6.24737e-07 0.0005 
1847 1 -0.00709623 -0.00770394 0.000498307 -1.68073e-05 -3.0193e-05 -7.09927e-06 1.71178e-08 -1.48017e-08 -1.19614e-08 -1.20364e-07 -7.45386e-08 7.51655e-07 0.0005 
1447 1 -0.00561489 -0.00711854 0.000499749 -2.96414e-05 -4.22951e-05 1.20486e-05 4.95401e-08 -3.05003e-08 2.45178e-08 -4.29729e-08 -6.26722e-08 7.20238e-07 0.0005 
1848 1 -0.00461768 -0.00724173 0.000498182 -1.62378e-05 -2.43195e-05 -5.03689e-06 3.42085e-09 -3.50626e-08 -2.28757e-09 -4.81884e-08 -1.93608e-08 7.50303e-07 0.0005 
2417 1 -0.00359469 -0.0073648 0.000499406 -4.05024e-06 -1.77346e-05 -3.43427e-06 9.27596e-09 -5.45173e-09 1.1786e-08 -3.78293e-08 -4.19375e-08 7.28511e-07 0.0005 
1462 1 -0.00259683 -0.00730953 0.000497936 -8.40678e-06 -2.16565e-05 7.43817e-07 4.63566e-09 8.9736e-09 -5.48637e-10 -1.59172e-08 -9.4227e-08 7.03613e-07 0.0005 
46 1 -0.00132049 -0.00784154 0.000499686 -1.0809e-05 -8.66957e-06 8.82536e-06 -1.17691e-07 -3.62711e-08 1.4129e-08 5.16481e-08 -2.48614e-07 7.76846e-07 0.0005 
1432 1 -0.000184419 -0.00787356 0.000498936 1.75084e-06 -1.57747e-05 3.67093e-08 2.96941e-08 1.4463e-08 -3.18212e-09 3.49442e-08 -1.31791e-07 6.67967e-07 0.0005 
2195 1 -0.0116005 -0.00660516 0.000498236 -6.91135e-06 -7.70796e-06 5.04743e-07 6.31213e-10 2.41121e-09 -1.03336e-08 2.28344e-07 -9.31311e-08 1.24986e-06 0.0005 
1429 1 -0.0105942 -0.00682958 0.00049979 2.93439e-05 -2.72803e-06 3.17636e-06 -1.90274e-07 -1.5178e-08 -6.87894e-09 1.08948e-07 -1.08286e-07 7.58713e-07 0.0005 
551 1 -0.00959927 -0.00692965 0.000498023 1.19754e-05 -9.1501e-06 3.68425e-07 -1.2151e-07 6.41755e-09 1.15112e-08 -3.97055e-08 -1.03394e-07 6.93351e-07 0.0005 
490 1 -0.00778698 -0.00635048 0.000498703 -2.82691e-05 -7.22022e-06 -2.12126e-06 -2.45439e-08 9.53908e-09 -3.06234e-09 -2.07075e-07 -5.47799e-08 6.7014e-07 0.0005 
1485 1 -0.00646779 -0.00656392 0.000499599 -2.50312e-05 -2.84149e-05 -5.48778e-06 5.27728e-09 1.04799e-08 -9.20744e-09 -9.76431e-08 -7.96392e-08 7.26932e-07 0.0005 
74 1 -0.00405007 -0.00639637 0.000499601 -2.89754e-05 -2.73766e-05 -8.37913e-06 -9.18187e-09 5.64256e-08 -1.60661e-08 4.604e-08 2.6809e-08 6.61448e-07 0.0005 
606 1 -0.0109832 -0.00581909 0.00050004 -1.30645e-05 -4.08036e-06 -3.24963e-07 -1.16024e-08 2.18507e-09 -1.08059e-08 1.89909e-07 -5.70103e-08 8.33212e-07 0.0005 
1293 1 -0.0100011 -0.00600451 0.000499282 -1.22005e-05 -1.90771e-05 -3.14254e-06 -1.18195e-08 2.96373e-08 -3.67277e-09 1.50601e-07 -4.00572e-08 7.21538e-07 0.0005 
1263 1 -0.00884799 -0.00626972 0.000499784 3.28359e-05 -9.18646e-06 5.14783e-06 -3.12049e-08 5.31887e-08 3.33983e-10 -9.39733e-08 -9.00668e-08 6.43332e-07 0.0005 
1248 1 -0.00701808 -0.00571164 0.000499725 -1.45668e-05 -1.18118e-05 3.60413e-06 -2.30213e-08 1.21581e-08 -7.60086e-09 -1.65759e-07 -4.20519e-08 6.93022e-07 0.0005 
1101 1 -0.00560416 -0.00601291 0.000498032 -2.74016e-05 -2.89254e-05 1.92163e-06 -2.91583e-08 -2.74506e-08 -1.35691e-08 -3.08532e-08 -5.23201e-08 7.26192e-07 0.0005 
817 1 -0.00467711 -0.00561692 0.000498996 -1.80911e-05 -3.72175e-05 -1.39883e-06 2.34668e-08 -1.18717e-08 -9.57657e-09 4.43227e-08 3.72835e-08 6.62282e-07 0.0005 
1969 1 -0.00335346 -0.00559095 0.000498588 -1.39819e-05 -1.48167e-05 -2.94011e-06 1.38153e-08 6.21565e-09 -1.24369e-09 -1.16587e-07 -2.18765e-08 6.42774e-07 0.0005 
266 1 -0.00225372 -0.00609151 0.00049795 -2.91954e-05 -2.42922e-05 1.07133e-06 -9.45777e-09 -1.09661e-08 -2.57982e-09 -1.75871e-07 -1.11021e-07 6.33697e-07 0.0005 
1477 1 -0.00092039 -0.00626656 0.000498409 -2.43862e-05 1.93911e-05 -5.71157e-06 2.50742e-08 -3.7587e-08 4.9751e-09 3.24404e-08 -1.65871e-07 7.46353e-07 0.0005 
740 1 -8.85988e-05 -0.00558943 0.000499257 4.93602e-06 -2.91941e-05 5.21579e-08 3.56582e-08 -1.43058e-08 -1.26898e-08 1.49837e-07 -7.86936e-08 6.12578e-07 0.0005 
1091 1 -0.0121734 -0.00548383 0.000497883 -8.19014e-07 -3.76275e-06 8.87095e-07 -9.76239e-09 7.04392e-09 -1.15157e-08 1.79118e-07 -5.55724e-08 1.29473e-06 0.0005 
900 1 -0.0113653 -0.00489536 0.000499698 -5.25849e-06 -2.57623e-06 -1.31088e-06 -2.15423e-08 -7.47828e-09 -4.28945e-09 1.24173e-07 -6.03671e-08 6.95685e-07 0.0005 
1315 1 -0.0103092 -0.00484018 0.000497874 4.49861e-06 -1.58787e-05 -6.17979e-07 -1.98316e-08 4.29256e-09 -1.15951e-08 1.24234e-07 -4.2095e-08 7.05248e-07 0.0005 
53 1 -0.00867958 -0.00528395 0.000497353 -1.00003e-05 -1.48316e-05 -1.20736e-06 -1.54256e-08 1.99064e-08 -4.3379e-09 -3.83379e-08 -1.13777e-07 6.64273e-07 0.0005 
1403 1 -0.00564764 -0.00495076 0.000499749 -2.07146e-06 -1.41227e-05 -6.13686e-06 5.40614e-08 3.54413e-08 1.30679e-08 -2.91606e-08 1.40825e-09 6.82748e-07 0.0005 
2181 1 -0.00395012 -0.00478984 0.000498676 -9.13366e-06 -8.01696e-06 -4.96247e-06 3.68656e-09 8.97493e-10 6.71379e-09 -1.10897e-07 2.91098e-09 6.25074e-07 0.0005 
152 1 -0.0025739 -0.00496695 0.000499761 -9.29695e-06 -1.4047e-06 7.65913e-06 3.17072e-09 -1.55338e-09 -1.76183e-11 -1.51067e-07 -1.1339e-08 7.40752e-07 0.0005 
262 1 -0.000967697 -0.00511329 0.000499414 -2.05423e-06 -4.44674e-05 1.35528e-05 1.18687e-08 -5.67355e-08 1.26506e-08 3.59758e-08 -7.61859e-09 7.69874e-07 0.0005 
890 1 -0.0125486 -0.0045579 0.000499236 1.15846e-06 4.67443e-07 8.4634e-07 -1.12565e-08 9.15955e-10 -3.63107e-09 7.91846e-08 -4.59931e-08 1.17993e-06 0.0005 
2 1 -0.010892 -0.00401482 0.000499727 3.01559e-07 -7.65109e-06 -2.60888e-06 -2.86257e-08 9.3203e-10 1.48376e-08 5.61294e-08 -7.14133e-08 6.39971e-07 0.0005 
12 1 -0.00939796 -0.00443001 0.000499353 7.26437e-06 -1.89533e-05 3.01394e-06 -4.01329e-08 2.38601e-08 1.70619e-09 6.26933e-09 -8.0417e-08 6.77187e-07 0.0005 
1415 1 -0.00839763 -0.00432582 0.000498572 -3.55035e-06 -1.07771e-05 6.74303e-06 -2.83152e-08 -3.71278e-09 -1.11561e-08 -3.40705e-08 -8.49679e-08 6.65378e-07 0.0005 
93 1 -0.00730116 -0.00469187 0.000499446 -0.000313103 -0.00116513 -2.70822e-06 -2.81564e-08 -1.40476e-08 -8.39967e-09 -6.86272e-08 -7.06176e-08 6.7733e-07 0.0005 
2064 1 -0.00595716 -0.00400031 0.000497323 2.68079e-06 -1.32842e-05 -3.12979e-06 1.48837e-08 1.35714e-08 1.15145e-08 -1.64583e-08 2.34079e-08 6.68307e-07 0.0005 
1452 1 -0.00495742 -0.00399844 0.000499395 -1.1649e-05 -2.5277e-05 5.4002e-06 -1.62018e-08 -3.17914e-09 -3.51604e-09 -3.94691e-08 1.84832e-08 6.36734e-07 0.0005 
1459 1 -0.00317002 -0.00416518 0.000498244 -8.82924e-06 -9.59441e-06 1.43601e-06 1.18997e-08 2.75271e-08 1.06089e-08 -1.39346e-07 2.85976e-08 7.5034e-07 0.0005 
1507 1 -0.0017368 -0.00442207 0.000499819 -2.10409e-05 2.49499e-05 -1.00905e-05 8.9356e-08 -1.49936e-07 2.01413e-08 -6.69357e-08 5.42719e-08 7.79755e-07 0.0005 
2217 1 -0.00078156 -0.00413027 0.000498714 -2.49672e-06 -4.50567e-05 3.20541e-06 6.88389e-08 -6.86224e-08 -2.09136e-09 9.1491e-08 1.42004e-07 7.87145e-07 0.0005 
982 1 -0.0128874 -0.00348495 0.000498399 7.9276e-06 -6.65129e-06 1.73862e-06 -4.51935e-08 5.08902e-08 -7.40842e-09 4.98136e-08 -1.00119e-08 1.16483e-06 0.0005 
1544 1 -0.00998417 -0.00359565 0.000499786 7.33135e-06 -3.33544e-05 1.62636e-06 -5.2163e-08 6.4847e-08 8.5803e-09 3.17353e-09 -5.35245e-08 6.72722e-07 0.0005 
2007 1 -0.00898717 -0.00351881 0.000500769 -3.50101e-07 -1.68563e-05 -6.38784e-06 -3.07905e-08 7.11047e-09 1.15862e-10 -6.06032e-08 -4.48676e-08 7.08537e-07 0.0005 
1617 1 -0.0078184 -0.00350837 0.000498754 -6.20591e-06 -5.78893e-05 1.22072e-06 -6.56549e-09 -3.92378e-08 -1.49229e-08 -2.93276e-08 -3.67751e-08 6.68404e-07 0.0005 
230 1 -0.00403992 -0.00359634 0.000498971 -1.65063e-05 -2.4788e-05 -6.27494e-06 -2.45048e-08 -1.27787e-08 2.28873e-08 -5.61978e-08 3.63456e-08 6.3125e-07 0.0005 
1067 1 -0.00238719 -0.003543 0.000498415 3.09494e-05 -1.75218e-05 -4.76282e-06 -4.38548e-09 3.74084e-08 -3.66532e-08 -1.1376e-07 8.24775e-08 7.1105e-07 0.0005 
9 1 -0.0130615 -0.00247868 0.000499745 -4.07189e-07 2.67669e-06 1.53304e-06 -1.36534e-08 4.79646e-08 9.53062e-09 6.9789e-08 2.92121e-08 1.18084e-06 0.0005 
2406 1 -0.0116637 -0.00306447 0.000498141 1.82978e-05 -7.78758e-06 2.97708e-07 -5.703e-08 3.36393e-08 -4.02619e-09 6.22819e-08 -1.78034e-08 6.80963e-07 0.0005 
178 1 -0.00953612 -0.00268297 0.000499788 2.21609e-05 -2.09317e-05 1.62398e-06 7.52544e-09 7.8105e-09 5.42897e-09 -3.62793e-08 -1.38175e-08 7.07891e-07 0.0005 
1238 1 -0.00853049 -0.00263 0.000498804 -7.52872e-07 -2.22591e-05 -3.42516e-06 3.56001e-09 -1.88617e-08 6.50806e-09 -3.78386e-08 -9.8037e-09 6.88254e-07 0.0005 
1610 1 -0.00704259 -0.00270849 0.000499786 -5.09751e-06 -7.4362e-05 3.02358e-08 7.49599e-09 9.33651e-09 2.98813e-10 7.71166e-09 8.76204e-09 6.63228e-07 0.0005 
391 1 -0.00605706 -0.00288315 0.00049933 9.49512e-07 -5.70553e-06 -3.99857e-06 -4.39076e-08 -2.23826e-08 -1.19156e-08 5.87033e-08 1.87502e-08 6.49505e-07 0.0005 
1178 1 -0.00506426 -0.003003 0.000499785 -3.2872e-05 1.92213e-05 -4.86869e-07 5.97428e-08 8.76749e-08 2.20496e-08 5.09433e-08 2.93637e-08 6.45421e-07 0.0005 
1798 1 -0.00415507 -0.00258666 0.000499746 -1.01152e-05 6.58581e-05 -3.13923e-06 5.59316e-08 -2.82265e-08 -5.23239e-08 7.41874e-08 3.78952e-08 6.44437e-07 0.0005 
619 1 -0.00323163 -0.0030075 0.000499748 -2.54865e-05 -9.67677e-05 1.73605e-05 2.55021e-08 4.79061e-08 9.82457e-09 -7.02635e-08 8.35759e-08 6.23708e-07 0.0005 
38 1 -0.00236588 -0.00249279 0.000499542 0.000300945 -1.36426e-05 -1.48158e-05 -7.35159e-08 3.27629e-09 1.80026e-08 -9.68846e-08 1.26788e-07 6.16925e-07 0.0005 
736 1 -0.000792067 -0.00295426 0.000499676 1.04685e-06 -9.93448e-06 6.32197e-06 3.31319e-08 -9.14494e-08 -3.49154e-08 -2.67959e-08 8.7529e-08 7.44136e-07 0.0005 
186 1 -0.0124293 -0.00170409 0.000498647 -5.50955e-06 -3.69269e-06 -4.47998e-07 1.73311e-09 1.98556e-08 -9.39967e-09 1.10548e-07 5.89541e-08 7.89131e-07 0.0005 
459 1 -0.0114529 -0.00208838 0.000499627 1.95447e-07 -3.45302e-06 -9.46975e-07 -2.57175e-09 9.28643e-09 -9.48252e-09 1.17677e-07 4.95889e-08 6.97353e-07 0.0005 
866 1 -0.0104727 -0.00233265 0.000499206 1.42529e-05 -2.98104e-06 6.53407e-07 -3.76578e-08 -2.2396e-08 -1.37182e-08 4.98484e-08 1.20134e-09 6.52553e-07 0.0005 
1411 1 -0.00937966 -0.0016826 0.000499337 4.76633e-06 -1.08483e-05 -3.88604e-07 -8.52887e-08 -1.36106e-08 -5.91645e-09 3.40868e-08 2.87052e-09 6.03122e-07 0.0005 
1278 1 -0.00775216 -0.00200382 0.000499848 -1.805e-07 -1.62175e-05 5.7636e-06 -2.07063e-08 2.6694e-08 3.71837e-08 -1.21292e-08 2.39028e-08 6.62538e-07 0.0005 
62 1 -0.00596044 -0.00187143 0.000499747 -2.3586e-05 -3.07224e-07 -8.14915e-06 1.57285e-08 6.004e-08 8.53872e-10 5.27702e-08 2.28488e-08 6.47917e-07 0.0005 
1669 1 -0.00496969 -0.00200678 0.00049977 -1.75263e-05 1.55961e-05 -7.20513e-06 1.78984e-09 -3.32242e-08 -1.28261e-08 6.76972e-08 9.80256e-09 6.24271e-07 0.0005 
695 1 -0.00125414 -0.00197915 0.000498814 -1.41506e-05 1.28502e-05 1.10091e-05 3.96856e-08 -2.84224e-08 -1.48151e-08 -6.52041e-08 6.72296e-08 7.27302e-07 0.0005 
1530 1 -0.0132939 -0.00120343 0.000499444 1.81107e-06 8.19158e-06 -3.29272e-06 -2.42811e-09 -7.48998e-09 -1.0782e-08 8.90651e-08 8.97801e-08 1.24229e-06 0.0005 
1654 1 -0.0107157 -0.00136335 0.000499119 -1.46788e-05 -1.5117e-06 1.95218e-06 1.46325e-08 -2.5972e-08 1.73543e-08 1.18482e-07 8.37771e-08 7.10926e-07 0.0005 
299 1 -0.00770239 -0.00098317 0.000499788 -9.60074e-06 9.06321e-06 -2.02478e-06 -5.56236e-08 -8.89905e-09 -3.69442e-09 -3.86012e-08 7.637e-08 6.46083e-07 0.0005 
98 1 -0.00667984 -0.00106282 0.000498656 -5.77949e-06 -3.40462e-06 -8.28881e-07 -7.94437e-10 2.42183e-08 2.13576e-08 7.7839e-09 5.67211e-08 6.43384e-07 0.0005 
1060 1 -0.00391656 -0.00157348 0.00049859 4.05045e-05 3.91476e-06 -4.16549e-06 6.82363e-08 2.07762e-08 -2.64217e-09 2.88249e-10 -5.31973e-08 5.68718e-07 0.0005 
781 1 -0.00216909 -0.00126703 0.000499778 0.000179074 0.000241495 9.0444e-06 -2.23061e-08 2.44593e-07 -1.01395e-09 -1.19695e-07 -5.0978e-08 5.94789e-07 0.0005 
1955 1 -0.000344601 -0.00148442 0.00049941 4.60487e-07 1.07237e-05 -7.04203e-06 3.51579e-08 1.29106e-08 1.33116e-08 8.79698e-09 8.5672e-08 6.57791e-07 0.0005 
1675 1 -0.0124417 -0.000620511 0.000499295 -7.1516e-06 -1.60074e-06 -1.2775e-06 1.93124e-08 1.22497e-09 -3.69328e-09 1.03133e-07 1.20161e-07 7.88826e-07 0.0005 
2125 1 -0.0115117 -0.000117798 0.000498089 -2.22242e-05 2.21741e-08 4.75905e-07 4.67592e-08 -2.81952e-08 -5.28756e-09 2.11393e-08 1.59811e-07 7.54668e-07 0.0005 
2169 1 -0.00953565 -0.000695372 0.000499858 -1.83581e-06 -1.26485e-05 6.82579e-06 7.82076e-09 3.85554e-09 -1.9455e-08 4.7469e-08 2.66165e-08 5.95683e-07 0.0005 
6577 1 -0.00859331 -0.000364287 0.000498032 -4.86007e-06 4.85621e-06 -2.3311e-06 -1.77119e-08 5.74837e-08 4.50354e-10 -9.72118e-09 5.37292e-08 6.18851e-07 0.0005 
6638 1 -0.00684172 -7.75355e-05 0.000498791 -1.90544e-05 -1.02394e-06 -3.71777e-06 -2.15331e-08 2.13696e-08 -6.99673e-09 -3.12011e-08 7.87953e-08 6.05118e-07 0.0005 
1600 1 -0.00577162 -0.000646574 0.00049837 -1.16398e-05 9.20071e-06 -4.22866e-07 -5.77084e-09 4.62549e-08 1.85147e-08 8.16445e-09 3.71272e-08 6.43238e-07 0.0005 
108 1 -0.00326379 -0.000749426 0.000498297 -1.73179e-05 -7.27626e-06 1.93612e-06 6.85263e-09 7.02573e-10 2.6389e-08 -6.8152e-08 -1.02356e-07 5.79077e-07 0.0005 
288 1 -0.00178356 -0.000343361 0.00049915 -1.53477e-05 1.07771e-05 -1.34319e-06 -1.80447e-09 -4.31295e-08 1.35244e-08 -5.17864e-09 -3.84951e-08 6.15402e-07 0.0005 
1934 1 -0.000389253 -0.000485766 0.000499416 -1.30103e-05 2.89994e-06 -5.14802e-06 4.17104e-08 4.97391e-09 1.45447e-08 4.40755e-08 8.60065e-08 6.4362e-07 0.0005 
1180 1 -0.00374231 -0.0128165 0.000926516 1.01394e-06 -2.10741e-06 -6.39805e-06 -6.93493e-09 -1.7471e-09 -2.31223e-08 6.89745e-09 2.71939e-08 1.42178e-06 0.0005 
1047 1 -0.00271694 -0.0130741 0.000937451 2.44919e-06 -6.43708e-06 -6.52395e-06 -7.65812e-10 -1.8316e-08 -2.23619e-08 3.40317e-09 2.02285e-08 1.52662e-06 0.0005 
1971 1 -0.000135812 -0.0126746 0.00125076 -2.10268e-05 -3.25551e-05 8.55342e-06 1.43445e-08 8.82809e-09 -1.88501e-08 -3.72749e-08 -2.3397e-08 1.44964e-06 0.0005 
2053 1 -0.0046755 -0.0125048 0.000750394 7.95201e-06 -1.81226e-06 -1.17543e-05 1.45202e-08 5.20305e-10 -1.73424e-08 -2.56937e-08 5.70451e-08 1.32923e-06 0.0005 
848 1 -0.00142116 -0.012465 0.00125429 4.37463e-07 -6.5917e-06 -1.34087e-05 -1.11143e-08 3.89694e-09 -3.07341e-08 -1.94728e-09 6.0632e-09 1.77438e-06 0.0005 
427 1 -0.0047742 -0.0110312 0.00117834 -7.61988e-06 -4.06921e-05 1.61311e-05 -2.37271e-08 -1.67642e-09 1.54088e-08 -2.48333e-08 4.2962e-08 1.52284e-06 0.0005 
2081 1 -0.00166507 -0.01069 0.00083065 -8.88713e-06 -1.40015e-05 1.0457e-05 -2.83923e-08 -9.41672e-09 -9.30701e-10 -3.5791e-08 -2.00369e-09 1.12743e-06 0.0005 
1375 1 -0.00811305 -0.0094774 0.000932287 -9.27104e-06 -4.1798e-06 4.54989e-06 -4.23668e-09 -2.04002e-08 -1.38292e-08 -1.89558e-07 -1.91294e-07 1.24159e-06 0.0005 
1658 1 -0.00634279 -0.0100615 0.000540071 -1.40008e-05 6.76581e-06 -1.99501e-05 1.5251e-08 -2.27052e-09 9.68084e-09 -7.8737e-08 -5.59074e-08 7.81813e-07 0.0005 
110 1 -0.00455645 -0.0100594 0.00109023 -1.52336e-05 -4.04896e-05 -2.68427e-06 1.56497e-08 -8.1901e-09 -3.07262e-08 -3.23506e-08 -2.78319e-08 1.41273e-06 0.0005 
1487 1 -0.00223832 -0.00992664 0.00124911 2.55622e-05 -1.13786e-05 -6.42102e-06 -3.25114e-09 3.17565e-08 -9.82196e-08 -3.81704e-08 -5.61609e-08 1.52011e-06 0.0005 
2090 1 -0.00143962 -0.00973383 0.000649688 -7.9356e-06 -2.36198e-05 -3.28043e-05 -1.96346e-08 -4.41913e-08 -9.15696e-08 -1.44366e-08 -6.02752e-08 7.82499e-07 0.0005 
2461 1 -0.00958789 -0.00929272 0.00111583 -5.26772e-06 8.83163e-07 -8.88416e-06 -1.57767e-08 4.10246e-08 -1.13101e-08 -7.19865e-08 -1.88252e-07 1.54909e-06 0.0005 
1750 1 -0.00397455 -0.00925422 0.000987774 -3.1517e-05 -3.74384e-05 -7.76702e-06 -7.88393e-09 -9.16951e-09 -3.63665e-08 1.02297e-08 -1.26442e-07 1.35895e-06 0.0005 
243 1 -0.0069519 -0.00838985 0.00122348 -7.94116e-06 -3.65038e-05 4.82701e-06 4.55493e-08 1.9027e-08 -1.54903e-08 -8.24066e-08 -4.85465e-08 1.8662e-06 0.0005 
948 1 -0.00517849 -0.00801604 0.000789947 -4.42124e-06 -2.59219e-05 -3.2473e-06 6.15216e-08 -5.54917e-08 -1.17384e-08 -5.06609e-08 -8.24782e-08 1.14251e-06 0.0005 
793 1 -0.00403478 -0.00823022 0.000735365 -3.20889e-05 -7.61821e-06 7.94888e-06 1.33228e-09 -5.32997e-09 -1.63958e-08 -3.68099e-08 -7.67755e-08 9.48301e-07 0.0005 
1694 1 -0.00170375 -0.00853225 0.00122967 1.95842e-05 -2.72471e-05 8.85193e-06 -4.98687e-08 -4.09542e-08 -1.76636e-08 -6.89968e-09 -1.38072e-07 1.5291e-06 0.0005 
842 1 -0.0100229 -0.00764363 0.00105346 9.61268e-06 -8.74906e-06 7.17859e-06 -6.25832e-08 -1.587e-08 -7.27609e-09 -4.30092e-08 -1.86694e-07 1.40196e-06 0.0005 
239 1 -0.00901051 -0.00741828 0.00114009 1.1995e-06 -2.65199e-05 4.36758e-06 -9.42869e-08 7.64921e-08 2.03138e-08 -1.90404e-07 -1.17706e-07 1.5212e-06 0.0005 
13 1 -0.00305203 -0.0078705 0.00118651 -2.84097e-05 -4.78428e-05 -2.81599e-05 8.35832e-09 -1.05748e-08 -1.69068e-09 -8.90978e-09 -7.91367e-08 1.60564e-06 0.0005 
1059 1 -0.00717506 -0.00674296 0.00118294 -2.73243e-05 -3.41022e-05 -8.69996e-06 3.24371e-09 2.27348e-08 -9.3601e-09 -1.89393e-07 -7.52963e-08 1.56172e-06 0.0005 
830 1 -0.00488243 -0.00642455 0.00105097 -2.78992e-05 -5.15625e-05 -1.15026e-05 -5.33514e-09 -1.10626e-08 -2.90721e-08 3.01082e-08 -2.14225e-08 1.36431e-06 0.0005 
515 1 -0.00310627 -0.00650799 0.000806388 -3.01661e-05 -2.83198e-05 -4.70852e-07 -2.15255e-08 -4.1206e-09 -6.93532e-10 -1.32237e-07 -7.07131e-08 9.99322e-07 0.0005 
2336 1 -0.00168228 -0.00691071 0.000543426 -1.56591e-05 -5.39401e-07 3.01655e-06 -6.71229e-09 2.13727e-08 2.99929e-09 -3.19436e-08 -1.59957e-07 6.84106e-07 0.0005 
2421 1 -0.00053976 -0.00706689 0.000969496 -1.96505e-05 -1.3972e-05 -2.19941e-05 -3.64401e-08 -8.93342e-09 -4.68475e-08 5.42126e-08 -2.1315e-07 1.39658e-06 0.0005 
1645 1 -0.00625301 -0.00560048 0.00113344 -2.56192e-05 -2.05786e-05 -2.12284e-06 -4.74543e-09 -2.00328e-08 -1.05547e-08 -5.07135e-08 -7.11893e-08 1.57293e-06 0.0005 
100 1 -0.00401347 -0.0056929 0.00124171 -1.80931e-05 -3.27336e-05 -8.13449e-07 -4.76401e-09 -1.88589e-08 -2.25702e-08 4.58971e-08 3.31007e-08 1.56824e-06 0.0005 
2208 1 -0.0015265 -0.00571476 0.00106921 -4.93303e-05 -2.27865e-05 3.26552e-06 -7.94925e-09 -2.00593e-08 -8.3053e-10 -6.19217e-08 -9.83996e-08 1.46285e-06 0.0005 
220 1 -0.0094052 -0.00551985 0.00113818 -8.35088e-06 -3.1847e-05 1.349e-06 -2.13762e-08 4.39353e-08 -1.24206e-08 6.99305e-08 -8.12325e-08 1.54749e-06 0.0005 
1211 1 -0.00784986 -0.00549471 0.00101021 -1.3752e-05 -1.73834e-05 -1.50002e-06 -1.86674e-08 5.78398e-09 -1.10994e-08 -1.19652e-07 -7.99696e-08 1.28315e-06 0.0005 
565 1 -0.00328807 -0.00481767 0.00124663 -1.87355e-05 -1.79712e-05 -6.26181e-06 4.52338e-08 2.50994e-08 6.7348e-09 -1.13737e-07 -9.41342e-09 1.59889e-06 0.0005 
2300 1 -0.0118215 -0.00397962 0.000867171 1.42201e-05 -1.16009e-05 2.16007e-07 -4.31385e-08 3.57197e-08 -2.53193e-08 6.02742e-08 -4.13102e-08 1.24523e-06 0.0005 
1986 1 -0.00647188 -0.00462829 0.00107741 8.97205e-06 -1.31143e-05 -7.00501e-06 4.85426e-08 -2.36205e-08 7.22005e-10 -5.21451e-08 -1.5842e-08 1.40863e-06 0.0005 
1236 1 -0.00459822 -0.00458734 0.00123036 -1.21237e-05 -2.11578e-05 -1.05639e-06 -3.34814e-08 -2.43844e-08 -2.56403e-08 -8.9711e-08 -1.33772e-08 1.52141e-06 0.0005 
483 1 -0.0025041 -0.00419784 0.00124265 -1.78717e-05 -4.9139e-06 -1.84934e-06 5.9207e-08 8.40042e-08 -1.02974e-08 -1.89658e-07 2.13175e-08 1.85365e-06 0.0005 
696 1 -0.00687484 -0.00370556 0.000761767 -1.40123e-05 -9.0225e-05 -2.55376e-06 -2.71253e-08 -7.94422e-08 1.85152e-08 -2.53427e-08 -2.62903e-08 9.74007e-07 0.0005 
704 1 -0.00147928 -0.00354855 0.000916327 2.18122e-05 -4.73353e-05 1.32065e-05 3.00304e-08 -9.95413e-08 -9.37549e-08 -1.77268e-08 8.6338e-08 1.2523e-06 0.0005 
2160 1 -7.59045e-05 -0.00355858 0.000913597 1.63323e-05 -5.33604e-05 1.10018e-05 -1.23372e-08 1.36121e-08 4.87871e-09 2.24943e-08 5.70354e-08 1.18376e-06 0.0005 
532 1 -0.0107953 -0.003145 0.000983151 1.90372e-05 -1.58879e-05 -6.73258e-06 -6.87829e-08 1.70138e-08 -4.91115e-09 1.99854e-08 -6.38275e-08 1.27248e-06 0.0005 
1201 1 -0.00783469 -0.0027945 0.00119777 7.34468e-05 2.6879e-05 -7.71182e-05 -9.74751e-08 -1.82044e-07 1.14045e-07 -2.3245e-08 -6.37114e-09 1.59914e-06 0.0005 
2224 1 -0.0085576 -0.00180063 0.00105622 7.34909e-08 -2.51142e-05 7.9964e-06 -1.01702e-07 -7.4179e-08 6.34008e-08 -1.81324e-08 1.62038e-08 1.28435e-06 0.0005 
1596 1 -0.00697486 -0.00180672 0.00109556 2.51023e-06 -1.46957e-05 -1.09239e-06 -7.44998e-09 4.60083e-08 4.37327e-08 -9.97773e-09 3.91089e-08 1.31765e-06 0.0005 
2261 1 -0.00298301 -0.00176483 0.000799138 0.000117816 0.000237649 -6.36332e-05 4.51863e-08 2.33236e-07 1.22687e-07 -8.12835e-08 -2.37026e-09 9.57319e-07 0.0005 
78 1 -0.0116482 -0.00115277 0.000789245 -1.4102e-05 -8.13095e-06 -5.05877e-06 1.52589e-08 7.38519e-10 1.61413e-08 1.53518e-07 1.15333e-07 1.14995e-06 0.0005 
367 1 -0.0100632 -0.00114036 0.00122307 -1.27811e-08 -3.16151e-05 5.00573e-06 7.03314e-09 7.20531e-08 9.78727e-09 1.07947e-07 4.63169e-08 1.55456e-06 0.0005 
5 1 -0.0050662 -0.00114541 0.000999529 -3.3055e-05 -6.83971e-06 -2.27373e-06 -1.61315e-08 4.31552e-08 3.58989e-08 2.2622e-08 -4.48206e-08 1.16412e-06 0.0005 
1357 1 -0.00117067 -0.00104895 0.000853039 2.38869e-06 2.1393e-05 -2.52014e-06 4.59099e-08 -7.58422e-09 1.1763e-08 -4.42773e-08 4.52324e-08 1.09479e-06 0.0005 
967 1 -0.0133496 -0.000207633 0.000558564 1.18325e-06 5.28924e-06 -1.38534e-06 6.24109e-09 -1.28864e-08 -1.05649e-08 9.19866e-08 1.70086e-07 1.28483e-06 0.0005 
2095 1 -0.0104811 -0.0004021 0.000633293 -5.92401e-06 -5.41169e-06 -1.15124e-06 -4.40447e-09 -3.20484e-08 3.80075e-09 4.7401e-08 1.07386e-07 8.35633e-07 0.0005 
42 1 -0.00418357 -0.000692136 0.000886376 -3.41845e-05 -9.32897e-06 -3.18041e-06 -4.29622e-10 6.76158e-09 7.43311e-08 -4.21537e-10 -1.39366e-07 9.62196e-07 0.0005 
548 1 -0.0025227 -0.000550588 0.00113848 -1.74515e-05 6.25018e-06 4.87865e-06 -2.23672e-08 -6.54843e-10 4.47415e-08 -6.0656e-08 -1.06095e-07 1.44573e-06 0.0005 
805 1 -0.00292385 -0.0130108 0.00191047 6.91984e-06 -2.19567e-05 -7.96467e-06 -1.25333e-08 3.06353e-08 -4.49546e-08 -3.6513e-08 1.5784e-08 2.44323e-06 0.0005 
643 1 -0.00199082 -0.0132025 0.00161179 5.14204e-06 -7.13224e-06 -1.0156e-05 -3.96896e-09 7.76926e-09 1.42979e-09 -1.85777e-08 5.22914e-09 2.18485e-06 0.0005 
1951 1 -0.000905483 -0.0133195 0.00131228 1.2016e-05 -9.02136e-07 -6.69958e-05 -1.10762e-08 3.63471e-09 3.76592e-09 -1.24529e-08 1.34193e-09 1.8351e-06 0.0005 
2416 1 -0.00017984 -0.0133488 0.00199938 -8.23067e-06 1.88511e-05 -5.34257e-05 2.74646e-08 -7.29437e-08 -2.04608e-08 -8.1489e-08 -3.31755e-09 2.38514e-06 0.0005 
2017 1 -0.00570968 -0.0119633 0.00127093 -9.85224e-06 1.57319e-06 7.38246e-06 -7.00553e-08 2.50587e-08 2.97095e-08 -7.54777e-08 9.1435e-08 1.8188e-06 0.0005 
527 1 -0.00434976 -0.0126221 0.00169566 7.72765e-07 -5.22304e-06 -6.94247e-06 -2.77135e-08 3.26997e-09 -3.29594e-08 -1.43571e-08 3.31284e-08 2.1702e-06 0.0005 
2327 1 -0.00336513 -0.0120801 0.00148624 7.94511e-06 -1.10165e-05 -4.35125e-06 3.36436e-09 -1.03328e-08 -3.66028e-08 -1.45896e-08 3.20395e-08 1.94728e-06 0.0005 
886 1 -0.00238618 -0.012271 0.0014298 2.65821e-06 -1.63171e-05 -8.93248e-06 -1.79675e-08 7.63285e-09 -8.74685e-08 -2.23579e-08 1.08976e-08 1.86443e-06 0.0005 
125 1 -0.000677265 -0.0119484 0.00167248 3.77676e-06 -1.71142e-05 -1.64117e-05 -1.81686e-09 3.7695e-09 -4.6756e-08 -6.58938e-08 7.41402e-09 2.13557e-06 0.0005 
2456 1 -0.00683111 -0.0114705 0.00139814 1.23041e-06 -7.26655e-06 -1.25616e-06 5.72079e-08 -1.29057e-08 -3.51868e-08 -9.98737e-08 9.08102e-08 1.91857e-06 0.0005 
461 1 -0.00542596 -0.0112567 0.00193323 -2.1366e-05 -2.14472e-05 1.40882e-05 -1.95691e-08 -3.35221e-08 -3.92904e-08 -4.78313e-08 6.78374e-08 2.45048e-06 0.0005 
2263 1 -0.0045178 -0.011673 0.00196004 -1.71896e-05 -1.93608e-05 1.4316e-05 -1.7918e-08 9.34304e-09 -7.62536e-08 -1.09313e-08 4.61505e-08 2.44752e-06 0.0005 
1851 1 -0.00379718 -0.0111967 0.00131107 -5.10785e-06 -2.4035e-05 -6.78124e-06 -3.21489e-08 -2.95605e-08 -1.02635e-09 -1.26657e-08 6.38429e-08 1.77098e-06 0.0005 
947 1 -0.00270664 -0.0113266 0.00135351 -4.34166e-06 9.75158e-07 9.55523e-07 6.66684e-09 5.84948e-08 -6.59728e-09 -3.6001e-08 3.68935e-08 1.79159e-06 0.0005 