ITEM: TIMESTEP
100000
ITEM: NUMBER OF ATOMS
10000
ITEM: BOX BOUNDS mm mm mm
-0.015 0.015
-0.015 0.015
-0.001 0.0554
ITEM: ATOMS id type x y z vx vy vz fx fy fz f_dragforce[1] f_dragforce[2] f_dragforce[3] radius 
1359 1 -0.00147923 -0.0132665 0.000499782 -0.000101718 5.9615e-05 7.95215e-05 -5.11226e-08 -1.82515e-07 -2.10364e-07 3.32697e-08 4.37384e-07 2.4267e-06 0.0005 
637 1 -0.00303429 -0.0122375 0.000499609 0.00017261 1.60509e-05 3.20632e-05 2.03036e-07 2.74654e-07 3.16834e-07 -1.30637e-07 1.10944e-07 1.37356e-06 0.0005 
1496 1 -0.00205739 -0.0124507 0.000499582 0.000261624 0.000425577 8.15562e-05 1.67347e-07 3.78169e-07 -3.49018e-08 5.47823e-08 4.83056e-07 1.71382e-06 0.0005 
502 1 -0.000772302 -0.0125582 0.000499666 0.000231993 0.000386322 -1.46131e-05 2.55824e-07 -5.68004e-08 -3.90908e-07 1.01986e-07 6.08185e-07 1.60881e-06 0.0005 
1195 1 -0.00712403 -0.0110976 0.000499746 9.34315e-05 0.000193346 8.53507e-06 2.97433e-08 1.09744e-08 -7.7003e-09 -1.28636e-07 -5.25658e-08 1.78248e-06 0.0005 
1356 1 -0.00633819 -0.0117495 0.000499776 -0.00034334 -7.05484e-05 -0.00014088 1.90096e-07 -4.25326e-07 1.0479e-07 -1.12732e-07 -1.53794e-07 1.94112e-06 0.0005 
939 1 -0.00515971 -0.01166 0.000499564 -4.78644e-05 8.75073e-05 0.000115896 -3.80103e-08 2.13418e-07 3.32411e-07 -1.43148e-07 -2.13421e-07 1.43809e-06 0.0005 
1758 1 -0.00415959 -0.0116628 0.000499803 -0.000293278 -0.00124062 -1.18028e-07 -1.11735e-07 -7.83339e-08 -3.56249e-10 -1.38197e-07 -1.46498e-07 1.27987e-06 0.0005 
656 1 -0.00321852 -0.0112548 0.000499708 9.34928e-05 2.69148e-05 -1.3412e-05 2.80611e-07 3.43847e-07 2.60303e-07 2.13378e-07 1.18739e-07 1.42721e-06 0.0005 
758 1 -0.00220293 -0.0114483 0.000499713 -3.49336e-05 -0.000505244 -4.98029e-06 -4.93086e-07 2.56405e-07 3.45215e-07 1.69444e-07 4.78702e-07 1.55374e-06 0.0005 
319 1 -0.00109578 -0.0115507 0.000499812 0.000146224 0.000488959 3.60669e-06 1.14727e-07 5.50468e-07 -5.67079e-08 1.45716e-07 6.79967e-07 1.61584e-06 0.0005 
1144 1 -0.00802679 -0.0106676 0.000499775 1.76597e-05 9.66597e-06 1.77642e-05 1.33194e-07 -3.06734e-09 7.93636e-09 -1.45545e-07 1.11976e-07 1.79633e-06 0.0005 
353 1 -0.00579255 -0.0108863 0.000499603 -7.71299e-05 8.95199e-05 -3.39029e-05 5.38551e-07 7.4868e-07 2.46904e-08 -1.71095e-07 -2.17687e-07 1.30054e-06 0.0005 
1818 1 -0.00394439 -0.0105672 0.000499757 0.000231671 0.000165979 1.21007e-07 5.71767e-07 6.49e-07 -3.15972e-08 2.3916e-07 -8.93687e-08 1.4241e-06 0.0005 
1873 1 -0.00258389 -0.0104821 0.000499588 5.93584e-05 -8.17597e-06 -4.60121e-05 1.66318e-07 -8.01626e-08 -1.29183e-08 3.55442e-07 1.37228e-07 1.41822e-06 0.0005 
2211 1 -0.000750967 -0.010425 0.000499631 2.55314e-05 -5.80335e-05 3.21881e-05 -1.40163e-07 -4.9523e-07 -1.2476e-07 2.95242e-08 3.1081e-07 1.60987e-06 0.0005 
647 1 -0.00886326 -0.00998347 0.000499804 -0.000117574 5.56702e-05 2.50918e-05 -1.71436e-08 -8.62279e-09 -1.96442e-08 -1.42018e-07 1.02478e-07 1.80248e-06 0.0005 
542 1 -0.00734303 -0.00993815 0.000499583 -8.48928e-06 0.000121067 -1.58509e-05 1.11853e-08 5.95838e-08 -6.85633e-08 -2.05453e-07 1.71905e-07 1.35354e-06 0.0005 
1585 1 -0.00535827 -0.00993908 0.000499565 1.16179e-05 -0.000176448 -8.66524e-05 -5.15889e-08 6.24482e-07 3.83615e-07 -1.67554e-07 -2.96381e-07 1.26897e-06 0.0005 
2142 1 -0.00324309 -0.00973031 0.000499636 4.12412e-05 -2.38564e-05 4.58457e-05 3.16522e-07 5.95674e-08 1.5539e-07 4.99129e-07 -2.89947e-08 1.43436e-06 0.0005 
2090 1 -0.00147983 -0.00974068 0.000499815 -0.000123266 -0.000134249 -1.48821e-06 -7.52063e-08 -6.05692e-07 1.95549e-07 1.3068e-07 -1.79158e-07 1.60216e-06 0.0005 
2330 1 -0.00886432 -0.00898368 0.000499578 -0.000102224 2.95016e-05 6.14723e-05 2.24332e-07 4.57709e-08 2.02503e-07 -2.95738e-07 8.91538e-08 1.29902e-06 0.0005 
733 1 -0.0068207 -0.00908538 0.000499757 0.000183983 -4.26697e-05 -4.43626e-06 -1.92269e-07 -3.27276e-07 1.44081e-07 -2.72099e-07 1.29877e-07 1.32557e-06 0.0005 
1443 1 -0.00575054 -0.00891026 0.000499672 9.00292e-05 0.000227671 6.93658e-05 3.52856e-07 -2.8274e-07 1.6038e-07 -1.77869e-07 -1.51684e-07 1.42027e-06 0.0005 
1221 1 -0.0047515 -0.00886993 0.000499604 3.50161e-05 -0.000158098 9.28024e-06 3.58094e-07 -3.46016e-07 7.69321e-08 3.18424e-08 -2.35015e-07 1.42288e-06 0.0005 
388 1 -0.00320468 -0.00873111 0.000499771 -3.3138e-05 1.45556e-05 -7.272e-06 -9.05161e-09 -2.11889e-07 1.90826e-08 5.1454e-07 -1.34549e-07 1.44199e-06 0.0005 
823 1 -0.00235868 -0.00926415 0.000499702 -1.79521e-06 7.17907e-05 -4.30658e-05 -5.19902e-08 1.23228e-07 -6.5045e-08 4.97913e-07 -1.87356e-07 1.46611e-06 0.0005 
714 1 -0.00108723 -0.00882123 0.000499624 -0.000243393 -8.34218e-05 -2.56068e-05 -1.2551e-07 -5.50342e-08 -9.65322e-08 9.61034e-08 -5.28927e-07 1.60133e-06 0.0005 
462 1 -8.89827e-05 -0.00887429 0.000499548 -0.000326009 -2.62498e-05 5.35192e-05 2.82725e-07 -3.46079e-07 -1.30094e-07 -2.58931e-07 -3.22975e-07 1.29602e-06 0.0005 
529 1 -0.0102116 -0.00859957 0.000499716 -5.07397e-08 8.08099e-05 0.000114412 4.81841e-08 9.60489e-08 1.43259e-07 -5.86434e-08 -2.17863e-07 2.01444e-06 0.0005 
359 1 -0.0093424 -0.00810584 0.000499501 0.000181463 0.000189064 9.84409e-05 1.53318e-07 2.36665e-07 3.6202e-07 -3.65565e-07 -8.12999e-08 1.40909e-06 0.0005 
1505 1 -0.00808677 -0.00835478 0.00049975 -0.000114076 9.23288e-06 2.18207e-05 2.48704e-07 -1.82893e-08 -2.95534e-08 -4.64769e-07 2.59688e-08 1.17983e-06 0.0005 
2252 1 -0.00616647 -0.00799188 0.000499699 -2.03058e-05 0.000109698 -6.14445e-05 3.3835e-07 -1.28219e-07 -1.57302e-07 -2.99595e-07 -7.01142e-08 1.30173e-06 0.0005 
2042 1 -0.00232002 -0.00826493 0.000499798 -0.00019472 7.39174e-05 3.4514e-06 -2.48187e-07 2.2637e-07 9.24053e-08 3.91407e-07 -4.61766e-07 1.44489e-06 0.0005 
1539 1 -0.0108416 -0.00779002 0.000499737 5.19224e-05 3.91604e-05 2.35266e-05 2.04577e-07 -1.82108e-07 2.01567e-07 5.28442e-08 -1.56893e-07 2.24188e-06 0.0005 
986 1 -0.00826352 -0.00737058 0.000499805 -0.000799026 -0.000108149 3.34296e-05 1.21399e-07 3.63042e-08 -1.35625e-07 -6.22864e-07 -4.18336e-07 1.37226e-06 0.0005 
1847 1 -0.00712391 -0.00770359 0.000499646 7.21367e-06 -0.000115893 -4.33382e-05 4.16016e-07 1.13116e-07 4.5456e-08 -4.71516e-07 -1.90383e-07 1.33065e-06 0.0005 
1447 1 -0.00565704 -0.00712923 0.00049985 -0.00140773 -0.0017355 -0.000184483 -5.14305e-08 -4.07769e-08 -1.36344e-06 -1.98607e-07 -9.50279e-08 1.34195e-06 0.0005 
1848 1 -0.00461597 -0.00720392 0.000499713 0.000272833 -0.000208647 -9.72457e-05 1.81451e-07 1.83141e-08 7.28763e-08 -3.87346e-08 2.50829e-07 1.50256e-06 0.0005 
2417 1 -0.00359379 -0.0073288 0.000499707 -0.000109411 0.00011271 -6.7444e-05 -2.29338e-07 -6.33083e-07 -4.91564e-08 7.02637e-08 4.77712e-08 1.48034e-06 0.0005 
1462 1 -0.00259204 -0.00730258 0.000499582 -0.000146728 7.99319e-05 -3.86016e-06 -3.70708e-07 4.63176e-07 4.78658e-08 1.90668e-07 -3.48508e-07 1.45795e-06 0.0005 
46 1 -0.00129484 -0.00784314 0.000499789 4.31405e-05 1.92544e-05 -1.32114e-05 5.12185e-07 8.0495e-08 -1.45979e-08 1.9696e-07 -1.0687e-06 1.5632e-06 0.0005 
1432 1 -0.00020583 -0.00788142 0.000499645 -0.000544929 -5.23882e-05 -5.89994e-05 -4.76054e-08 -3.71017e-07 9.32214e-08 5.84025e-08 -5.75235e-07 1.40808e-06 0.0005 
2195 1 -0.0115969 -0.00660461 0.000499688 -2.5334e-05 -0.000233023 9.42995e-06 -5.03527e-07 1.08722e-07 -3.28918e-08 3.45795e-07 1.03941e-07 2.22825e-06 0.0005 
1429 1 -0.0105988 -0.00681203 0.000499804 0.000144915 0.000678277 7.08397e-08 4.54789e-08 -4.45345e-08 -3.33746e-11 6.6434e-08 -2.99274e-08 1.35634e-06 0.0005 
551 1 -0.00960546 -0.00693177 0.000499749 6.05954e-06 -2.91836e-05 4.68091e-05 7.98465e-08 2.57392e-09 5.58329e-08 -3.30207e-07 -1.52763e-07 1.40394e-06 0.0005 
490 1 -0.00780913 -0.00634284 0.000499682 -0.000997596 0.000128206 9.65931e-05 8.3952e-07 -7.7664e-07 2.05239e-07 -5.65309e-07 -2.46423e-07 1.39145e-06 0.0005 
1485 1 -0.00648539 -0.00656917 0.000499757 -0.000793428 0.000125251 0.00014448 7.95549e-08 -6.59477e-07 1.61181e-07 -1.9019e-07 -1.97818e-07 1.45686e-06 0.0005 
74 1 -0.00405821 -0.00637401 0.000499741 -0.000461914 0.000239151 -6.6931e-05 1.64462e-07 -8.56311e-08 -3.18941e-07 3.75788e-08 3.11204e-07 1.38852e-06 0.0005 
2336 1 -0.00166988 -0.00691606 0.000499834 5.2642e-05 1.8706e-05 -8.09852e-05 4.95348e-07 -7.19775e-07 -6.02576e-07 1.02373e-08 -6.06931e-07 1.22816e-06 0.0005 
606 1 -0.010975 -0.00582167 0.000499762 -0.000191882 -3.47134e-05 -2.04096e-05 -1.89635e-07 -2.4972e-07 9.35968e-08 1.44931e-07 1.43958e-07 1.48622e-06 0.0005 
1293 1 -0.00999313 -0.00601009 0.000499803 -0.000147351 -7.78921e-05 -5.39571e-05 1.28883e-08 -3.32078e-07 2.06415e-07 -7.65401e-08 -4.25222e-08 1.38325e-06 0.0005 
1263 1 -0.00886143 -0.00626382 0.00049981 -8.7261e-05 3.83215e-05 2.27319e-05 -3.22177e-07 1.98863e-07 5.97602e-08 -4.60908e-07 -2.97972e-07 1.43595e-06 0.0005 
1248 1 -0.00702721 -0.00571666 0.000499736 -0.000206843 -0.000212462 2.2899e-05 -4.75392e-07 -4.23119e-07 -8.01411e-08 -3.14832e-07 -1.09642e-07 1.40367e-06 0.0005 
1101 1 -0.00561988 -0.00601565 0.000499614 -0.000274622 0.000202053 -1.19927e-05 3.65965e-07 -1.34814e-07 1.25062e-07 5.05826e-08 -3.09459e-09 1.46842e-06 0.0005 
817 1 -0.00469284 -0.00559233 0.000499675 -0.000438058 0.000349084 6.00538e-05 1.69536e-07 9.65712e-08 -7.82742e-08 6.1964e-08 2.99561e-07 1.38862e-06 0.0005 
1969 1 -0.00336279 -0.00558718 0.000499716 -0.000492474 0.000552153 -6.63493e-05 1.53745e-07 -3.52404e-08 3.894e-09 -3.28538e-07 1.09532e-07 1.35243e-06 0.0005 
266 1 -0.00225377 -0.00610429 0.000499594 -0.000330426 -0.000426274 -0.000126264 5.89133e-08 -1.24625e-06 1.55288e-07 -4.9074e-07 -2.0114e-07 1.33245e-06 0.0005 
1477 1 -0.000927131 -0.00624662 0.000499646 3.0897e-05 0.00035158 -9.32498e-05 4.15114e-07 -3.7714e-07 -1.52287e-08 1.99487e-07 -3.40432e-07 1.75578e-06 0.0005 
740 1 -6.61278e-05 -0.00560974 0.000499784 0.000334853 -0.000617943 1.45841e-05 1.14501e-07 1.0066e-07 -2.3948e-07 6.26874e-07 -3.13862e-08 1.14123e-06 0.0005 
1091 1 -0.0121719 -0.0054842 0.000499612 6.53729e-05 -0.000100507 -1.18965e-05 -2.01729e-07 1.52226e-07 6.67653e-08 1.94162e-07 3.42624e-07 2.27595e-06 0.0005 
900 1 -0.0113611 -0.00489942 0.000499731 -5.44461e-05 -5.47137e-06 -3.32587e-05 -1.15446e-07 1.23583e-07 1.93791e-07 4.83939e-08 2.85382e-07 1.18656e-06 0.0005 
1315 1 -0.010311 -0.00482935 0.000499695 -5.64051e-05 4.58235e-05 1.03223e-06 1.62203e-07 -1.15122e-07 2.7434e-08 -1.36832e-07 1.17964e-07 1.38106e-06 0.0005 
53 1 -0.00868127 -0.00528031 0.00049954 -0.000188656 3.82193e-05 -5.63404e-05 -1.38195e-07 1.85587e-07 -2.07189e-08 -3.56998e-07 -1.5562e-07 1.52062e-06 0.0005 
1403 1 -0.00564548 -0.00498128 0.000499807 0.00079827 0.000208412 9.4178e-08 3.38767e-08 5.8512e-08 5.23124e-11 6.98746e-08 9.00235e-08 1.44368e-06 0.0005 
2181 1 -0.00401663 -0.00483058 0.000499699 -0.000968338 0.000139221 -1.67982e-05 -2.19636e-07 -9.77452e-07 -2.91138e-07 -1.53215e-07 1.5126e-07 1.47636e-06 0.0005 
152 1 -0.00256719 -0.00498157 0.000499775 -3.66022e-05 6.38058e-05 7.28121e-05 4.42089e-07 -6.95049e-07 -1.96081e-07 -2.64268e-07 3.52262e-08 1.3856e-06 0.0005 
262 1 -0.000948083 -0.0051198 0.000499786 0.0007666 -0.000423838 1.434e-06 -1.48976e-09 -1.3706e-07 2.78067e-07 1.82582e-07 1.60101e-07 1.55754e-06 0.0005 
890 1 -0.0125481 -0.00455779 0.000499711 4.35045e-05 -9.56551e-05 1.2042e-05 -3.13369e-08 -1.81115e-10 4.85204e-08 -7.531e-08 5.93116e-07 2.12387e-06 0.0005 
2 1 -0.0108929 -0.00401622 0.000499606 -1.10242e-05 -1.56064e-05 -3.74993e-05 1.214e-07 -6.32359e-08 7.06574e-08 -2.14513e-07 2.74051e-07 1.35289e-06 0.0005 
12 1 -0.00938579 -0.00445008 0.000499719 -8.78287e-05 0.000153456 -7.67284e-06 9.16551e-08 -8.70553e-09 -6.66314e-08 -3.52496e-07 7.28029e-09 1.49756e-06 0.0005 
1415 1 -0.00839066 -0.00432372 0.000499768 -1.41044e-05 -8.095e-05 -9.63113e-06 2.35518e-07 -1.2109e-07 -8.9654e-08 -2.45153e-07 -4.01197e-08 1.4372e-06 0.0005 
93 1 -0.00727985 -0.00460603 0.000499814 2.56149e-05 0.000305822 4.30807e-08 4.24429e-08 -1.92946e-08 -1.54927e-12 3.76817e-08 -1.2853e-08 1.35522e-06 0.0005 
2064 1 -0.00592173 -0.00401938 0.000499577 0.000119507 -0.000440869 0.000118527 1.38785e-07 5.7072e-08 -9.33634e-08 9.99607e-08 8.33962e-08 1.43e-06 0.0005 
1452 1 -0.00493769 -0.00419631 0.000499748 -1.61315e-05 -0.00084574 -4.79506e-05 1.64019e-07 5.08683e-07 -3.62732e-07 1.07044e-08 1.31294e-07 1.47089e-06 0.0005 
1459 1 -0.00324313 -0.00418586 0.000499699 -0.000827623 -0.000799718 1.02712e-05 -1.3664e-07 3.37542e-07 1.59251e-07 -1.95397e-07 8.23495e-08 1.41522e-06 0.0005 
1507 1 -0.0017117 -0.004464 0.000499808 0.0012561 -0.00170469 7.37475e-06 1.60682e-07 -3.34401e-07 2.42658e-07 -4.24008e-08 2.12782e-07 1.41026e-06 0.0005 
2217 1 -0.000766917 -0.00413641 0.00049963 0.00111128 -0.00054015 1.26058e-05 4.21488e-07 1.30019e-07 -7.13652e-08 2.63071e-07 5.85674e-07 1.42009e-06 0.0005 
982 1 -0.0128749 -0.00338127 0.000499825 -0.000479847 4.61791e-05 -4.57595e-06 -1.51967e-07 5.41831e-07 1.75119e-08 -1.93918e-07 5.28869e-07 1.97441e-06 0.0005 
1544 1 -0.00998426 -0.00359912 0.000499825 -3.01059e-06 3.15246e-05 8.0715e-06 1.92088e-07 -4.43388e-07 4.01418e-08 -4.40074e-07 1.11938e-07 1.40233e-06 0.0005 
2007 1 -0.00898754 -0.00352157 0.000499744 6.33337e-05 -7.38839e-06 2.79248e-05 1.10092e-07 -3.58254e-07 -7.4482e-09 -4.75066e-07 7.81995e-08 1.45305e-06 0.0005 
1617 1 -0.00780724 -0.00351178 0.000499656 7.3244e-05 -2.39328e-05 2.07677e-06 1.30931e-07 -7.33146e-08 9.10725e-08 -2.16547e-07 -1.55162e-08 1.43016e-06 0.0005 
1178 1 -0.0050652 -0.00317302 0.000499805 -0.000195841 -0.00105406 3.23011e-08 6.11323e-08 8.66175e-08 -4.56143e-11 8.12895e-08 7.98516e-08 1.28605e-06 0.0005 
230 1 -0.00409368 -0.00366035 0.000499682 -0.000393189 -0.000159753 1.8949e-05 -5.28269e-08 3.04903e-07 9.94875e-08 -8.63172e-08 1.34401e-07 1.43321e-06 0.0005 
1067 1 -0.00242923 -0.00359685 0.00049962 -0.000195672 -0.00124864 2.89499e-06 4.55746e-07 -1.09074e-07 1.85292e-07 -1.34266e-07 1.15989e-07 1.36167e-06 0.0005 
9 1 -0.01313 -0.00241413 0.000499795 -2.06633e-05 3.40582e-05 -1.8002e-05 -3.49639e-08 1.26238e-07 -2.5364e-09 -2.79281e-07 9.55015e-08 1.96169e-06 0.0005 
2406 1 -0.0116663 -0.00306045 0.000499681 -5.67241e-05 -3.4953e-05 -1.73378e-05 1.62149e-07 -5.21579e-08 -7.33284e-08 -3.71387e-07 2.6413e-07 1.35672e-06 0.0005 
178 1 -0.00953253 -0.00268251 0.00049981 -0.000259213 -0.000644578 2.32777e-05 6.64605e-08 -1.20992e-07 -3.23409e-08 -6.42225e-07 4.52027e-08 1.45224e-06 0.0005 
1238 1 -0.00853138 -0.00263194 0.000499666 0.000154987 -7.29122e-05 1.86879e-05 -1.18437e-07 -7.69395e-08 -2.86663e-07 -4.8364e-07 1.63174e-08 1.45092e-06 0.0005 
1610 1 -0.0070196 -0.00271962 0.000499821 1.23295e-05 -5.33815e-05 -1.62765e-05 8.53898e-08 -7.46513e-08 -1.07946e-07 -5.29554e-08 1.22901e-08 1.45166e-06 0.0005 
391 1 -0.00604072 -0.00295133 0.000499741 0.00123333 -0.000796882 -4.71458e-06 7.1906e-07 1.2032e-07 3.86475e-07 2.15446e-07 8.1089e-10 1.4514e-06 0.0005 
1798 1 -0.00419983 -0.00266607 0.000499757 0.000195585 -8.01782e-05 4.52522e-05 4.0852e-08 9.03452e-08 -5.12788e-07 -2.48456e-08 1.23327e-07 1.26504e-06 0.0005 
619 1 -0.0032798 -0.00306208 0.000499806 0.000531962 -7.06793e-05 7.62731e-06 -1.68042e-07 1.18153e-07 -1.43807e-07 -1.67151e-07 1.49957e-07 1.26922e-06 0.0005 
38 1 -0.00236172 -0.00259886 0.000499638 0.00116499 -0.00104788 -0.000270123 -7.1944e-07 1.1846e-06 2.48059e-07 -2.01228e-07 1.92479e-07 1.27153e-06 0.0005 
736 1 -0.000795356 -0.00294151 0.000499693 0.0007633 -0.00101745 -5.96387e-05 1.674e-07 -3.39739e-07 2.77008e-07 2.32264e-07 -2.45524e-08 1.29115e-06 0.0005 
186 1 -0.0124322 -0.00169801 0.000499544 -0.000120367 7.58124e-05 -5.83103e-06 7.03384e-09 8.26778e-08 -8.66343e-08 -4.38624e-07 -2.19237e-07 1.18909e-06 0.0005 
459 1 -0.0114387 -0.00208695 0.000499766 -3.95718e-05 -1.33508e-05 3.87997e-06 1.37036e-07 -6.39274e-08 -1.29106e-07 -6.53283e-07 -8.82866e-08 1.30166e-06 0.0005 
866 1 -0.0104701 -0.00233483 0.000499725 -2.737e-05 4.09042e-05 6.70049e-05 1.67787e-07 2.28704e-08 -9.70477e-09 -6.44888e-07 -5.48195e-08 1.25222e-06 0.0005 
1411 1 -0.00938138 -0.00167921 0.000499772 -0.0007096 -4.15318e-05 -2.09979e-05 1.45622e-07 -3.3035e-07 -3.2067e-07 -6.8046e-07 -1.69494e-07 1.24717e-06 0.0005 
1278 1 -0.00773782 -0.00202399 0.000499615 4.70351e-06 2.54032e-05 7.92065e-06 -2.0235e-08 -2.90672e-07 -6.1012e-09 -2.94868e-07 4.14351e-08 1.42133e-06 0.0005 
62 1 -0.00601701 -0.00194899 0.000499807 -0.000484175 -0.0010792 -8.291e-08 1.77148e-07 7.48e-08 -1.01256e-10 1.88267e-07 7.06459e-08 1.45932e-06 0.0005 
1669 1 -0.00502741 -0.00210499 0.000499692 -0.000153354 -0.000462452 8.05981e-05 1.48282e-07 1.25504e-07 1.47389e-07 1.42062e-07 6.41589e-08 1.32623e-06 0.0005 
1060 1 -0.00398487 -0.00159016 0.000499574 -0.000773507 -0.000567119 -0.00011741 3.41785e-07 -2.29003e-07 4.21016e-07 -2.27058e-08 -4.30673e-08 1.24916e-06 0.0005 
695 1 -0.00150354 -0.00195003 0.000499803 -0.00103228 0.000933829 -2.6799e-07 3.7393e-08 -1.76262e-08 9.2187e-09 1.02289e-08 4.01778e-08 1.20159e-06 0.0005 
1530 1 -0.0132964 -0.00119489 0.000499813 1.42523e-05 -0.000186595 1.7727e-06 6.69353e-09 -1.91983e-07 -2.47257e-09 -2.76376e-07 -3.54355e-07 1.98353e-06 0.0005 
1654 1 -0.0107076 -0.00136366 0.000499545 -6.66535e-05 6.05021e-05 -8.59772e-05 3.77004e-08 1.16698e-07 4.43467e-08 -8.03574e-07 -3.03768e-07 1.28185e-06 0.0005 
299 1 -0.0076832 -0.00101787 0.000499765 3.06195e-05 0.000255841 3.81857e-05 -7.8961e-08 -3.496e-07 -1.59619e-07 -2.31301e-07 1.97837e-07 1.33254e-06 0.0005 
98 1 -0.00668396 -0.00106887 0.000499589 0.00011493 9.02043e-06 1.7133e-06 -3.63397e-08 -1.77504e-07 1.10781e-07 7.5072e-08 2.45384e-07 1.46065e-06 0.0005 
781 1 -0.00227708 -0.00131537 0.000499784 -0.00097127 0.00165525 -8.08406e-06 1.25396e-07 2.47031e-07 1.11468e-07 -2.94854e-07 2.48598e-08 1.06025e-06 0.0005 
1955 1 -0.000319853 -0.00147084 0.000499559 -0.000219764 -0.000173334 9.05856e-05 9.76901e-08 -3.0702e-07 3.41018e-07 2.20707e-07 2.5399e-07 1.56589e-06 0.0005 
967 1 -0.0133489 -0.000186908 0.000499743 1.6201e-05 8.98667e-05 -1.17037e-05 -4.32245e-08 2.35967e-07 -5.74335e-08 -1.39608e-07 -7.33897e-07 2.3179e-06 0.0005 
1675 1 -0.0124509 -0.000626096 0.000499661 1.05553e-05 0.000106377 4.06987e-05 -9.31164e-08 7.20971e-08 1.84475e-07 -3.95171e-07 -5.02432e-07 1.18917e-06 0.0005 
2125 1 -0.0114839 -7.43087e-05 0.000499685 -0.000652165 -0.000549315 8.36339e-06 3.82777e-08 -9.54658e-07 -5.58038e-08 -3.28204e-07 -5.62453e-07 1.37693e-06 0.0005 
2169 1 -0.00952243 -0.000689312 0.000499644 -6.9677e-05 7.98998e-07 1.13984e-05 -1.24666e-08 1.29375e-07 -6.77e-08 -6.35719e-07 -3.22856e-07 1.23015e-06 0.0005 
6577 1 -0.00856594 -0.000398506 0.000499691 -7.0143e-06 -0.000186472 -1.24226e-05 6.10016e-08 1.33391e-07 -2.32887e-07 -2.626e-07 -2.5765e-08 1.28187e-06 0.0005 
6638 1 -0.00682291 -7.88857e-05 0.000499645 0.000260912 1.82057e-06 5.87033e-05 -1.12967e-07 -3.54967e-07 5.94227e-08 9.72397e-08 3.16899e-07 1.19511e-06 0.0005 
1600 1 -0.00577294 -0.000656788 0.000499735 0.000212731 8.11073e-06 3.55641e-05 -1.98294e-07 -7.58456e-07 -2.77306e-07 1.72649e-07 2.72322e-07 1.49164e-06 0.0005 
5393 1 -0.00497376 -5.51358e-05 0.00049967 5.31519e-05 0.00030304 6.23262e-05 5.65754e-08 -9.26159e-07 -1.40482e-07 -1.12335e-07 2.13919e-08 1.26095e-06 0.0005 
108 1 -0.00332599 -0.000759922 0.00049972 -0.000148948 -0.000115418 -2.12672e-05 -2.04667e-07 2.59345e-07 9.7619e-08 -2.00024e-07 -1.13117e-07 1.12181e-06 0.0005 
288 1 -0.00182561 -0.000323776 0.000499652 -0.000106621 0.000980893 -5.11688e-05 -4.29175e-07 -1.80028e-06 -1.06367e-06 1.11746e-08 9.63353e-08 1.25906e-06 0.0005 
1934 1 -0.000384043 -0.000473021 0.000499654 6.79319e-05 -0.000186884 7.70591e-05 -6.36725e-07 -2.65095e-07 -7.1742e-07 2.06959e-07 3.41062e-07 1.70456e-06 0.0005 
1180 1 -0.00374159 -0.0128154 0.000906002 0.000115114 -5.73128e-05 -1.61741e-05 1.59115e-07 1.22377e-07 5.26933e-07 -2.9508e-07 -5.18653e-08 2.56417e-06 0.0005 
1047 1 -0.00270509 -0.0130732 0.00093849 0.000356676 -7.74086e-05 -3.75966e-06 6.44861e-07 -4.33341e-08 -4.16019e-08 -1.15697e-07 1.65965e-07 2.90492e-06 0.0005 
1971 1 -0.000107992 -0.0126787 0.00123698 0.00020856 -5.8311e-05 -2.11223e-06 1.5218e-07 -4.43115e-07 -6.68238e-07 9.94226e-08 6.73608e-08 3.22739e-06 0.0005 
2017 1 -0.00572153 -0.012062 0.00122213 -0.000594748 0.000321651 -5.04164e-05 1.79514e-07 -2.18977e-07 4.79447e-07 -9.85867e-08 -1.5491e-07 3.10901e-06 0.0005 
2053 1 -0.00467277 -0.0125057 0.000715494 3.35971e-05 3.53526e-05 -4.98611e-05 2.04476e-07 1.65311e-07 4.81259e-07 -2.5441e-07 -1.55406e-07 2.32101e-06 0.0005 
427 1 -0.00477353 -0.0109966 0.00113996 0.00012953 0.000108781 -6.96474e-05 6.76668e-07 2.80028e-07 2.29537e-07 -1.22579e-08 -1.71528e-07 2.61914e-06 0.0005 
2081 1 -0.00166051 -0.0106755 0.000830623 6.04481e-05 -0.0003876 -0.000169979 -6.46574e-08 -4.96374e-07 4.2044e-08 2.86186e-07 5.48347e-07 2.45394e-06 0.0005 
1375 1 -0.00811711 -0.0094822 0.000937874 -6.2738e-05 -1.7317e-05 -7.20119e-06 2.1154e-07 -1.92026e-07 4.90103e-08 -2.08995e-07 2.89337e-07 2.53637e-06 0.0005 
1658 1 -0.00635078 -0.0100572 0.000517893 -1.91143e-05 3.89561e-05 -2.9353e-05 4.70931e-07 8.07329e-07 -5.72348e-08 -2.69335e-07 -1.70709e-07 1.3249e-06 0.0005 
110 1 -0.00454974 -0.0100239 0.00108123 5.01077e-05 5.32217e-05 -8.30245e-05 2.05215e-07 3.38548e-07 -4.47647e-08 1.76414e-07 -1.60779e-07 2.54024e-06 0.0005 
1487 1 -0.002205 -0.00992251 0.00123625 0.000211303 4.25196e-05 -0.0002002 -2.91247e-08 2.33884e-07 -5.79388e-08 4.3514e-07 4.59376e-08 3.10276e-06 0.0005 
2461 1 -0.0095831 -0.00929482 0.00112078 1.20524e-05 -7.17533e-05 0.000165502 6.90709e-08 7.26672e-07 1.93221e-07 -1.16403e-07 -7.66649e-08 3.2738e-06 0.0005 
106 1 -0.00622155 -0.00937942 0.00124637 -7.24137e-05 -0.000847637 -0.000673077 4.17568e-07 -3.52543e-07 6.50352e-08 -2.42723e-07 -5.33193e-08 2.77783e-06 0.0005 
1750 1 -0.0039549 -0.00922587 0.00098775 6.85058e-05 2.56331e-05 3.26236e-05 3.08594e-07 7.94209e-08 8.64318e-08 4.36052e-07 -1.42639e-07 2.83e-06 0.0005 
243 1 -0.00696973 -0.00839384 0.00120637 0.000321195 2.52187e-05 -6.15028e-05 7.89501e-09 1.7817e-08 2.41808e-07 -3.90674e-07 1.81746e-07 3.134e-06 0.0005 
948 1 -0.00518896 -0.00799587 0.000709737 -2.23748e-05 -7.4813e-05 -0.000616238 7.77419e-08 -8.46686e-08 2.61895e-07 -1.20434e-07 8.88158e-08 2.06088e-06 0.0005 
793 1 -0.00403154 -0.00820536 0.000698917 -0.00012691 0.000103655 -0.000712669 -1.53155e-07 -1.22049e-07 -5.97478e-07 2.57079e-07 4.89127e-08 1.77434e-06 0.0005 
1694 1 -0.00169359 -0.00852142 0.00123578 -0.000162852 0.000134134 9.09157e-06 -1.59482e-07 8.41928e-07 -1.00039e-07 2.73142e-07 -6.8867e-07 3.11949e-06 0.0005 
842 1 -0.0100277 -0.00764317 0.0010614 -2.80452e-05 0.000289567 0.000284928 4.32174e-08 4.66196e-07 4.81653e-10 -2.13591e-07 -1.98544e-07 2.84574e-06 0.0005 
239 1 -0.0090218 -0.00741799 0.00114991 -0.000403906 0.000128106 0.000654642 6.48563e-07 6.29169e-07 -3.15227e-07 -5.88419e-07 -2.8042e-07 3.15748e-06 0.0005 
13 1 -0.00305601 -0.0078639 0.00118454 -2.83498e-05 1.91249e-05 6.72507e-05 -2.38823e-07 1.10404e-07 3.55511e-07 3.91707e-07 -2.98641e-07 3.25253e-06 0.0005 
1059 1 -0.00719771 -0.00675002 0.00117782 -0.000830008 -0.000435868 -0.000317158 -2.59964e-07 1.39257e-07 1.1083e-06 -5.37069e-07 -2.01261e-07 3.03854e-06 0.0005 
830 1 -0.00488567 -0.00639745 0.00106052 -0.000314481 -8.34289e-05 -0.000201254 6.89297e-07 -4.60737e-08 6.29798e-08 4.38996e-08 2.50015e-07 2.75833e-06 0.0005 
515 1 -0.00311608 -0.00650602 0.000807222 -0.000489962 0.000441708 -0.000397241 -2.99085e-07 -2.28406e-07 -5.15775e-07 -3.35336e-07 -1.37435e-08 2.04211e-06 0.0005 
2421 1 -0.000550163 -0.00705689 0.00094774 -0.000165373 0.000171013 -0.000141481 -9.46458e-09 -5.60299e-07 3.84184e-09 2.01747e-07 -8.11645e-07 2.84706e-06 0.0005 
1645 1 -0.00627351 -0.00563123 0.00115109 -0.000389321 -0.00033281 0.000245325 -3.60545e-07 -6.34262e-08 -7.737e-07 5.13373e-08 -7.87406e-08 3.1452e-06 0.0005 
100 1 -0.00402757 -0.0056639 0.00124258 -0.000229061 0.000274577 -2.16149e-05 -1.21276e-07 2.67309e-07 -1.95442e-07 -2.0156e-08 3.14353e-07 3.17931e-06 0.0005 
2208 1 -0.00153899 -0.0056946 0.0010658 -0.000576892 0.000171516 -0.000592427 1.17079e-07 -5.5191e-07 -2.57586e-09 -1.19742e-07 -1.59549e-07 3.04941e-06 0.0005 
220 1 -0.00940384 -0.00552502 0.00114551 -0.000251171 9.5214e-05 -7.0456e-05 1.66594e-07 -8.20647e-09 3.63426e-07 -2.19808e-07 -8.7938e-08 3.21313e-06 0.0005 
1211 1 -0.0078517 -0.00548809 0.00101695 -0.000399895 -0.000557779 -4.03991e-06 -1.30438e-06 6.26275e-07 -2.64811e-07 -3.24218e-07 -1.29646e-07 2.45116e-06 0.0005 
565 1 -0.00334542 -0.0048794 0.00123911 -0.00148851 -0.000645534 0.000365872 -5.34921e-07 -6.0978e-07 -2.68616e-07 -2.1671e-07 5.94521e-08 2.97352e-06 0.0005 
2300 1 -0.0118219 -0.00397715 0.000866928 2.14046e-06 -4.07216e-05 -1.12755e-05 -1.28942e-07 1.73443e-07 3.33835e-08 -1.74524e-07 5.73068e-07 2.33961e-06 0.0005 
1986 1 -0.00645378 -0.00465179 0.001062 -0.000309387 -0.000534582 -0.000379118 -3.04109e-07 3.01001e-07 -4.94049e-08 4.03215e-08 4.30492e-08 2.80437e-06 0.0005 
696 1 -0.00684238 -0.00368359 0.000697492 0.000126546 -0.000122264 -0.000199008 3.37512e-07 3.04118e-07 2.32869e-07 4.23868e-08 2.0388e-08 1.75637e-06 0.0005 
704 1 -0.00149729 -0.00355592 0.000859199 0.000196977 -0.000855267 -0.00115554 2.05341e-07 -8.77509e-07 1.22397e-06 3.64903e-08 2.06778e-07 2.00196e-06 0.0005 
2160 1 -7.65062e-05 -0.00353939 0.000907547 5.60654e-05 0.000910326 -0.000475277 -5.55437e-07 -2.91311e-07 6.82446e-07 3.66419e-07 2.05696e-07 1.93999e-06 0.0005 
532 1 -0.0107955 -0.00314696 0.000983522 1.22474e-05 -0.000126141 6.52431e-05 1.56754e-07 -3.6365e-08 -2.97037e-08 -4.21723e-07 1.96122e-07 2.66116e-06 0.0005 
1201 1 -0.00782947 -0.00279228 0.0011935 -5.99561e-05 -0.000164842 0.000179984 6.43598e-07 7.72611e-07 -9.21278e-07 -3.80053e-07 -3.16652e-08 3.40745e-06 0.0005 
297 1 -0.00150671 -0.00262909 0.00123408 -0.0025391 -0.000353344 -0.00206709 4.31268e-07 1.0069e-07 -5.97843e-07 4.0321e-08 -2.57261e-08 3.08908e-06 0.0005 
2224 1 -0.00854606 -0.00179081 0.00103988 4.3262e-05 4.92099e-05 -6.3384e-06 -2.94141e-07 -3.64965e-08 -6.87958e-07 -4.43145e-07 -5.03806e-08 2.33128e-06 0.0005 
1596 1 -0.00694681 -0.00183774 0.00108191 0.000691535 -0.000704843 -0.000608802 -2.25897e-08 -1.37345e-07 3.49861e-07 -2.97018e-08 9.80415e-08 2.55867e-06 0.0005 
2261 1 -0.00305774 -0.00190854 0.000696096 -0.00013555 -0.00126366 -0.00557148 1.73233e-07 1.34071e-06 4.46746e-06 -2.40669e-07 6.21997e-08 1.64658e-06 0.0005 
48 1 -0.0006502 -0.0021141 0.00118996 -0.00353451 -0.000668531 -0.00195497 -7.869e-07 5.40091e-07 1.00175e-06 2.04611e-07 2.44056e-08 3.05521e-06 0.0005 
78 1 -0.0116441 -0.00114804 0.000775012 2.01689e-05 -6.82654e-06 -9.92682e-06 -1.85436e-08 -4.95386e-07 3.92119e-07 -7.25699e-07 -3.82975e-07 1.95937e-06 0.0005 
367 1 -0.0100423 -0.00115443 0.00121589 -0.000476519 0.000419573 6.86857e-05 3.80387e-07 1.44792e-07 -2.60524e-08 -8.4467e-07 -3.65737e-07 2.98557e-06 0.0005 
1540 1 -0.00605771 -0.00128216 0.00124927 -3.15013e-05 5.74817e-05 7.54405e-05 4.69269e-07 -5.50081e-07 4.91462e-07 2.44569e-07 2.57265e-07 3.57514e-06 0.0005 
5 1 -0.00509911 -0.00122594 0.000970528 1.83407e-05 -0.000276654 9.76649e-05 4.34296e-07 -6.18295e-08 -6.13674e-07 1.3752e-07 2.7284e-08 2.49446e-06 0.0005 
1357 1 -0.00118028 -0.00103849 0.000768253 -0.000530441 0.000167211 -0.000915279 -8.0142e-07 -5.6005e-07 -1.53054e-06 1.17288e-07 3.05136e-07 2.59401e-06 0.0005 
2095 1 -0.0104724 -0.000398323 0.000610589 -0.000107084 3.45568e-05 -3.30282e-05 -1.29035e-07 -2.75572e-08 3.59321e-08 -6.12143e-07 -3.97372e-07 1.45705e-06 0.0005 
42 1 -0.00426973 -0.000687666 0.000822097 -8.02166e-05 -0.000187607 -0.000268992 -3.84015e-09 -1.02072e-07 -1.85476e-07 8.79301e-08 -2.10599e-07 2.04714e-06 0.0005 
548 1 -0.00256531 -0.000577832 0.00112252 -5.20671e-06 -0.000134991 -8.21123e-05 -4.82721e-07 1.2354e-06 8.23508e-07 -2.17333e-07 -1.19038e-07 2.63035e-06 0.0005 
805 1 -0.0030018 -0.0130063 0.00189102 -0.00358662 0.000768936 -0.0012707 1.19606e-07 -1.44061e-07 -2.13434e-07 -5.27528e-08 -1.01385e-08 4.23364e-06 0.0005 
643 1 -0.00199186 -0.0132007 0.0016274 0.000568941 3.65821e-05 7.96386e-05 8.68408e-07 -1.68315e-07 3.23293e-08 8.42413e-08 3.67451e-07 4.1547e-06 0.0005 
1951 1 -0.000871999 -0.0133215 0.00129219 0.000218765 3.42826e-05 -9.24332e-05 4.29691e-07 3.64284e-08 -1.5111e-07 8.35683e-08 3.66087e-07 3.78055e-06 0.0005 
2416 1 -0.000165481 -0.0133436 0.00199941 0.000190008 0.000783897 6.26833e-06 5.67324e-07 8.02001e-08 -2.2346e-07 6.00764e-08 1.12388e-07 4.69348e-06 0.0005 
527 1 -0.00436615 -0.0126159 0.00166082 -4.83529e-05 -0.000114826 2.10484e-05 -1.34658e-07 -5.155e-08 8.86941e-07 -2.07988e-07 -9.5151e-08 3.62215e-06 0.0005 
2327 1 -0.00336119 -0.0120645 0.00144533 -2.4712e-06 0.0001158 -0.000187712 7.72921e-07 -1.82169e-07 1.24153e-06 -9.99981e-08 2.8599e-08 3.44129e-06 0.0005 
886 1 -0.00237985 -0.0122547 0.00142539 -4.99135e-05 1.26582e-05 4.08326e-05 6.88563e-07 -4.86626e-07 4.36727e-07 9.39065e-08 4.29332e-07 3.4799e-06 0.0005 
848 1 -0.00141223 -0.0124721 0.00126297 0.000363488 0.000126923 1.56136e-05 7.75569e-09 -2.02658e-07 -6.89977e-07 1.45534e-07 7.52197e-07 3.7631e-06 0.0005 
125 1 -0.000651419 -0.0119366 0.0016292 0.000257802 -7.73988e-05 0.000268026 -4.1049e-07 -1.1203e-06 -8.95867e-07 6.86467e-08 6.36146e-07 4.2576e-06 0.0005 
2456 1 -0.00684498 -0.0114616 0.00138812 0.00282474 -0.00169515 -0.00161429 2.08585e-07 -1.06665e-07 -1.36627e-07 -1.24551e-07 -8.34176e-08 3.46744e-06 0.0005 
461 1 -0.00540969 -0.0112684 0.00188198 -0.000368062 -0.000717108 -0.000903764 2.74706e-07 2.76807e-07 -2.86136e-07 6.95475e-09 -1.15627e-07 4.1293e-06 0.0005 
2263 1 -0.00448386 -0.0116459 0.00187286 -5.39921e-05 1.79837e-05 -0.000427532 1.09649e-07 1.80536e-07 1.76106e-07 -5.8993e-08 -1.03167e-07 4.01318e-06 0.0005 
1851 1 -0.00380479 -0.0111795 0.00130612 5.84996e-05 0.000138522 -0.000136537 4.56844e-07 -8.84747e-08 5.67108e-07 1.7867e-07 -4.61756e-08 3.33523e-06 0.0005 