ITEM: TIMESTEP
105000
ITEM: NUMBER OF ATOMS
10000
ITEM: BOX BOUNDS mm mm mm
-0.015 0.015
-0.015 0.015
-0.001 0.0554
ITEM: ATOMS id type x y z vx vy vz fx fy fz f_dragforce[1] f_dragforce[2] f_dragforce[3] radius 
1359 1 -0.00148201 -0.0132671 0.000499708 0.000271022 0.000276214 -4.75917e-06 -1.09324e-07 8.55611e-08 8.27665e-08 -9.31562e-08 2.10604e-07 2.18136e-06 0.0005 
637 1 -0.00302744 -0.012235 0.000499638 0.00022015 4.0039e-05 -4.96797e-06 -5.98882e-08 -1.21866e-08 -7.19696e-08 -2.94234e-07 -2.36904e-07 1.2688e-06 0.0005 
1496 1 -0.00204963 -0.012444 0.000499635 0.000263417 0.000236034 -3.96166e-05 -2.02392e-07 5.04289e-08 -1.99341e-07 -9.57594e-08 1.38923e-07 1.53081e-06 0.0005 
502 1 -0.000765094 -0.012554 0.000499668 0.000299873 0.000151739 -1.93493e-05 -2.32567e-07 -6.78603e-08 -8.29202e-08 5.88694e-08 3.44533e-07 1.4389e-06 0.0005 
1195 1 -0.0071231 -0.0110901 0.000499704 8.27476e-05 1.45308e-06 -1.15949e-05 -6.8292e-08 1.23122e-07 5.21652e-08 -4.44202e-08 -1.52125e-07 1.60372e-06 0.0005 
1356 1 -0.0063398 -0.0117486 0.000499751 9.94387e-05 1.57448e-05 2.44307e-05 -7.0323e-08 3.56897e-08 4.05763e-08 -1.67982e-08 -2.8798e-07 1.74961e-06 0.0005 
939 1 -0.00516002 -0.0116597 0.000499623 7.9407e-05 -1.78869e-05 -8.25508e-06 1.01787e-07 5.29881e-08 5.95941e-08 -1.94523e-07 -4.25602e-07 1.30531e-06 0.0005 
1758 1 -0.00414142 -0.0116808 0.000499792 5.72082e-05 0.000179111 3.13109e-06 -8.79693e-08 -1.43697e-07 -1.05053e-07 -3.31696e-07 -4.50366e-07 1.19825e-06 0.0005 
656 1 -0.00321776 -0.0112534 0.000499552 0.000250766 0.000121152 -3.54507e-05 -8.21173e-08 1.15037e-07 2.00245e-07 -1.01152e-07 -2.88331e-07 1.38874e-06 0.0005 
758 1 -0.00220488 -0.0114504 0.000499735 0.0001969 -0.000254794 1.99763e-05 9.76618e-08 9.30801e-08 2.04463e-07 1.06573e-07 1.17355e-07 1.39574e-06 0.0005 
319 1 -0.00114476 -0.0115216 0.000499794 -0.00114277 0.000867928 3.23484e-05 -1.55701e-07 -3.88039e-07 1.30869e-07 3.08338e-07 4.05855e-07 1.39876e-06 0.0005 
1144 1 -0.00802869 -0.0106661 0.000499775 4.54264e-05 -1.29219e-05 3.65127e-05 -1.39031e-07 1.93722e-08 -3.1031e-08 -8.39093e-08 9.3084e-09 1.64135e-06 0.0005 
353 1 -0.00579107 -0.0108845 0.000499586 -9.04803e-05 -0.000138999 -1.45367e-05 -1.78051e-07 -1.04019e-08 1.74274e-07 -1.98592e-07 -3.36541e-07 1.23422e-06 0.0005 
1818 1 -0.00394305 -0.0105652 0.000499732 0.000153398 -1.81948e-06 -8.84422e-05 -3.07176e-07 1.18028e-07 -3.04761e-07 -1.18253e-07 -3.65794e-07 1.38728e-06 0.0005 
1873 1 -0.00258448 -0.0104796 0.00049966 8.21798e-05 0.000157622 1.66574e-05 6.09464e-08 -7.75361e-07 3.1981e-07 1.42989e-07 -9.84878e-08 1.35846e-06 0.0005 
2211 1 -0.00075006 -0.0104247 0.000499673 0.000101293 0.000147155 1.08577e-05 -1.445e-07 -2.08806e-07 9.5712e-08 2.50447e-07 1.69054e-07 1.42032e-06 0.0005 
647 1 -0.00886367 -0.00998295 0.00049972 1.0131e-05 2.84664e-05 -4.12149e-06 1.0947e-08 1.09009e-08 1.20464e-08 -1.61032e-07 1.67371e-07 1.61583e-06 0.0005 
542 1 -0.00734377 -0.0099377 0.000499581 5.63801e-05 3.31971e-05 7.59527e-06 -2.53104e-07 -2.6197e-08 6.60034e-08 -2.02129e-07 1.81927e-07 1.20172e-06 0.0005 
1585 1 -0.00535924 -0.00993632 0.0004996 5.52501e-05 -5.80271e-05 -4.38581e-06 -4.37202e-07 -9.33931e-08 5.82638e-08 -2.86092e-07 -2.57618e-07 1.27394e-06 0.0005 
2142 1 -0.00323759 -0.00972253 0.000499609 0.000144087 0.000167448 -5.8591e-05 3.21845e-07 4.33399e-08 1.21846e-07 2.15945e-07 1.7722e-08 1.386e-06 0.0005 
2090 1 -0.00148009 -0.00974132 0.000499813 8.88346e-05 0.000107814 -6.74795e-06 2.33262e-08 -1.68097e-08 9.58246e-09 2.03383e-07 -1.01977e-07 1.45596e-06 0.0005 
2330 1 -0.00886505 -0.00898302 0.000499618 -6.28727e-06 -1.07611e-05 -5.87721e-05 -1.52821e-07 -1.42749e-08 1.40179e-09 -2.90509e-07 4.49276e-07 1.11288e-06 0.0005 
733 1 -0.00684013 -0.0090711 0.000499755 -0.00141391 0.00128227 1.54945e-06 2.35962e-08 -9.95107e-08 6.01112e-08 -3.02193e-07 3.68925e-07 1.18713e-06 0.0005 
1443 1 -0.00574844 -0.00891133 0.00049965 0.000171532 -0.000123304 9.44661e-05 -3.75727e-07 -2.63146e-07 -1.10585e-09 -2.98494e-07 1.15194e-07 1.29952e-06 0.0005 
1221 1 -0.00474948 -0.00886873 0.00049958 2.29985e-06 -5.71069e-05 3.53949e-05 -2.63725e-07 -2.71849e-07 3.1905e-08 -1.92477e-07 -1.40764e-09 1.30063e-06 0.0005 
388 1 -0.00320114 -0.00872302 0.000499762 0.000256469 0.000385484 -5.26962e-05 -1.72638e-07 -4.47193e-08 1.64079e-07 1.95194e-07 1.50539e-07 1.38388e-06 0.0005 
823 1 -0.00235409 -0.00925433 0.000499763 0.000139032 0.0002578 2.50341e-09 6.44746e-07 -5.27315e-07 3.39327e-07 2.87568e-07 1.86422e-08 1.40087e-06 0.0005 
714 1 -0.00108811 -0.00882121 0.000499658 1.06009e-05 0.000193327 -4.88863e-05 -8.73157e-08 5.25511e-08 9.46941e-08 1.49484e-07 -2.11573e-07 1.47693e-06 0.0005 
462 1 -8.96207e-05 -0.00887402 0.000499621 -4.7848e-05 3.0028e-05 -4.99232e-05 1.01445e-07 -7.45209e-08 3.05919e-07 -3.79201e-08 -2.3201e-07 1.33331e-06 0.0005 
529 1 -0.0102117 -0.00859928 0.000499779 -6.2079e-05 5.13297e-05 -1.77724e-05 -7.2141e-08 6.72552e-08 -5.20566e-08 -2.49477e-07 5.28185e-07 1.58237e-06 0.0005 
359 1 -0.0093427 -0.00810482 0.000499581 -8.69396e-05 -8.94553e-06 3.17006e-05 1.7247e-09 -1.77743e-07 -9.58292e-08 -4.1062e-07 5.31278e-07 1.10299e-06 0.0005 
1505 1 -0.00809011 -0.0083431 0.000499747 -0.00140069 0.00173272 6.74661e-06 8.40134e-08 1.05646e-07 -4.70292e-08 -3.84135e-07 4.6348e-07 1.0481e-06 0.0005 
2252 1 -0.00617621 -0.00799853 0.000499699 -0.000650782 -0.000547038 4.062e-05 -1.09499e-07 -2.88535e-07 -3.93043e-08 -3.68433e-07 4.32633e-07 1.13233e-06 0.0005 
2042 1 -0.00231744 -0.008255 0.000499782 0.000181563 0.000499855 -1.20836e-05 4.63629e-07 -1.11473e-07 -7.2456e-07 1.22684e-07 1.8715e-08 1.30357e-06 0.0005 
1539 1 -0.0108422 -0.00778933 0.000499796 -8.87326e-05 0.000130798 2.60449e-06 -1.16526e-07 -1.27267e-08 1.04615e-07 -3.68471e-07 7.62695e-07 1.69304e-06 0.0005 
986 1 -0.00829132 -0.00736362 0.000499724 -0.000747264 0.00187938 -2.88651e-05 -6.28642e-08 3.80478e-07 8.0336e-08 -5.16541e-07 8.63319e-08 1.15209e-06 0.0005 
1847 1 -0.00713231 -0.0076867 0.000499685 -0.00121802 0.00112483 -3.18556e-05 -1.95401e-07 -7.54227e-09 -3.58029e-08 -4.58764e-07 3.67366e-07 1.14445e-06 0.0005 
1447 1 -0.00567279 -0.00712323 0.000499752 -0.00123888 0.000277625 5.5572e-06 -8.83559e-08 3.46422e-07 -8.43811e-08 -3.53099e-07 3.53541e-07 1.12223e-06 0.0005 
1848 1 -0.00460564 -0.00718455 0.00049971 0.00047207 -0.00101602 -4.89499e-06 -2.83317e-07 -1.32936e-07 3.02317e-07 -2.27389e-07 4.3626e-07 1.29781e-06 0.0005 
2417 1 -0.00359528 -0.00732376 0.000499639 -0.000350991 0.000337477 -3.10662e-05 -2.59328e-07 -2.14318e-08 6.54687e-08 -1.61263e-07 3.40003e-07 1.2973e-06 0.0005 
1462 1 -0.00258864 -0.00728687 0.000499649 0.000184086 0.00127735 1.46873e-05 2.99651e-07 2.81143e-07 -6.73546e-08 -6.55123e-08 1.66863e-07 1.30078e-06 0.0005 
46 1 -0.00128879 -0.00784166 0.000499733 0.000554806 0.000340312 4.70743e-05 9.66129e-08 8.16794e-08 -2.46529e-08 1.49999e-07 -4.36031e-07 1.5347e-06 0.0005 
1432 1 -0.000203924 -0.00788083 0.000499603 0.000244323 1.39331e-06 -3.21134e-05 2.76073e-07 1.64891e-08 1.44149e-07 1.60634e-07 -1.75235e-07 1.34827e-06 0.0005 
2195 1 -0.0116007 -0.00660628 0.000499518 -0.000306225 9.81122e-06 -6.84431e-05 5.46285e-08 -1.81122e-07 3.63538e-07 -5.11318e-07 1.30846e-06 1.51761e-06 0.0005 
1429 1 -0.0106191 -0.00679705 0.000499797 -0.00017987 -0.000306919 -1.84483e-05 6.70236e-07 -5.81018e-07 -6.28247e-07 -5.03435e-07 8.51002e-07 9.8879e-07 0.0005 
551 1 -0.00960542 -0.00693209 0.000499616 0.000116031 2.03514e-06 -1.52783e-05 1.23081e-07 -2.87184e-07 1.2022e-07 -5.97223e-07 5.30346e-07 1.08556e-06 0.0005 
490 1 -0.00784258 -0.00634745 0.000499607 -0.00138709 7.93845e-05 -4.52647e-05 3.407e-07 -3.21542e-07 8.73863e-08 -5.46031e-07 1.26027e-07 1.14936e-06 0.0005 
1485 1 -0.00650544 -0.00656687 0.000499789 -0.00112498 -2.27317e-05 -7.41908e-07 3.38504e-07 -1.05305e-07 -1.12723e-07 -3.34746e-07 1.57639e-07 1.21542e-06 0.0005 
74 1 -0.00406356 -0.0063442 0.000499752 -0.00104885 6.84478e-05 6.3126e-05 -4.56601e-07 2.1294e-08 2.29835e-07 -1.52952e-07 3.5094e-07 1.21642e-06 0.0005 
2336 1 -0.00166118 -0.00691238 0.000499799 3.15174e-05 0.000566498 -5.19985e-07 -1.51537e-08 -5.10834e-08 1.00061e-10 -1.95356e-08 -3.78728e-08 1.14703e-06 0.0005 
606 1 -0.0109801 -0.00582255 0.000499735 -0.000118463 -0.000169664 -6.33381e-05 -5.46391e-07 -3.27921e-07 3.76793e-07 -7.90428e-07 1.21931e-06 1.03281e-06 0.0005 
1293 1 -0.00999872 -0.00601294 0.000499696 -0.000252907 -0.000182924 -8.02796e-05 3.0831e-07 -1.43776e-08 3.54425e-07 -7.93222e-07 5.36691e-07 1.00896e-06 0.0005 
1263 1 -0.00886512 -0.00626023 0.000499855 -0.000133097 0.000118689 7.44541e-06 1.0943e-07 -2.32827e-07 1.56442e-07 -6.81367e-07 2.47674e-07 1.17966e-06 0.0005 
1248 1 -0.00704299 -0.00572371 0.00049969 -0.000844577 0.000147008 4.14069e-05 2.76528e-07 9.00491e-08 1.92182e-07 -3.92627e-07 1.18537e-07 1.15625e-06 0.0005 
1101 1 -0.00563876 -0.0060212 0.000499581 -0.000994488 0.000148147 -2.22917e-06 1.87067e-07 -3.9388e-08 2.01634e-07 -1.97897e-07 1.70685e-07 1.23449e-06 0.0005 
817 1 -0.00470448 -0.00557671 0.000499696 -0.000874934 0.000260123 2.59398e-05 8.74223e-09 2.60286e-07 6.78642e-08 -1.56273e-07 2.60742e-07 1.22163e-06 0.0005 
1969 1 -0.00337097 -0.00557618 0.000499671 -0.000491837 0.000815048 -4.52566e-05 -1.27993e-07 5.11639e-08 -2.30712e-08 -2.88882e-07 2.39108e-07 1.1961e-06 0.0005 
266 1 -0.00225304 -0.00610625 0.000499645 2.90838e-05 0.000187831 5.26269e-05 -2.96017e-08 -3.82084e-07 -1.35715e-07 -3.64068e-07 1.61465e-07 1.18336e-06 0.0005 
1477 1 -0.000916854 -0.00624181 0.000499721 -8.2659e-05 0.000281429 -1.55109e-05 3.28632e-07 -5.594e-09 -9.14892e-08 1.80048e-07 3.23434e-07 1.50806e-06 0.0005 
740 1 -4.91818e-05 -0.00565445 0.000499679 -8.72721e-05 0.000296118 2.63289e-05 -1.13318e-08 6.86231e-08 9.14312e-08 5.51156e-07 3.85074e-07 1.07459e-06 0.0005 
1091 1 -0.0121718 -0.00548443 0.000499554 0.000127838 -0.000210455 4.50083e-05 -3.95875e-07 1.81524e-07 1.29912e-07 -8.78261e-07 2.20866e-06 1.33428e-06 0.0005 
900 1 -0.0113618 -0.00489865 0.000499799 0.000160794 -6.58331e-05 5.14774e-05 -3.4301e-07 -2.64491e-07 4.51682e-07 -1.03591e-06 1.59738e-06 7.87929e-07 0.0005 
1315 1 -0.0103194 -0.0048344 0.000499668 -0.000655639 -0.000685632 -0.000104955 7.38016e-07 -6.80424e-07 -8.88453e-07 -1.12216e-06 8.24466e-07 9.7267e-07 0.0005 
53 1 -0.00869365 -0.0052753 0.000499634 -0.000672807 0.000164159 -1.97025e-05 2.72014e-07 -1.91103e-07 -8.59135e-08 -7.81523e-07 3.44581e-07 1.21818e-06 0.0005 
1403 1 -0.0056327 -0.00498256 0.000499756 -0.000872233 0.000192127 1.6995e-05 -8.75463e-08 7.35853e-08 8.35222e-09 -2.20702e-07 1.11755e-07 1.16974e-06 0.0005 
2181 1 -0.00403558 -0.00482911 0.000499666 -0.000751117 0.000575996 -1.97553e-05 -1.19306e-07 3.54931e-07 5.67975e-08 -2.0287e-07 1.87309e-07 1.25499e-06 0.0005 
152 1 -0.00255465 -0.00499839 0.000499803 -0.00014763 0.000512479 -5.97362e-07 -7.5729e-08 2.12075e-07 -4.96276e-10 -8.63018e-08 2.87269e-07 1.22483e-06 0.0005 
262 1 -0.000912301 -0.00513902 0.000499723 0.000242447 -2.41037e-05 6.11444e-05 5.12748e-09 -4.03639e-07 -1.93224e-07 2.74853e-07 4.94304e-07 1.41404e-06 0.0005 
890 1 -0.0125481 -0.00455783 0.0004996 0.000106849 -0.000148615 7.77683e-05 -1.54543e-07 1.30656e-07 -4.63325e-07 -1.34484e-06 3.31577e-06 8.09014e-07 0.0005 
2 1 -0.0108933 -0.00401584 0.000499479 4.16499e-05 -8.72363e-06 0.000151078 3.19762e-07 -3.59933e-07 6.83653e-07 -1.49358e-06 1.21506e-06 8.05909e-07 0.0005 
12 1 -0.00939663 -0.00444872 0.000499699 -0.00106091 -0.000287956 -3.49337e-06 3.14179e-07 -1.25117e-08 8.48792e-08 -1.06628e-06 5.09634e-07 1.14943e-06 0.0005 
1415 1 -0.00839352 -0.00432178 0.000499671 -0.000283313 3.39096e-05 -1.53083e-05 3.12323e-07 8.99124e-08 -7.87366e-08 -7.44241e-07 3.59668e-07 1.1608e-06 0.0005 
93 1 -0.00728099 -0.00460519 0.000499731 -0.000283921 0.000140276 -4.717e-05 2.80905e-07 3.99001e-07 3.46573e-07 -2.69388e-07 2.24024e-07 1.11268e-06 0.0005 
2064 1 -0.0059191 -0.00402408 0.000499514 -2.02072e-05 0.000500477 1.71927e-05 4.31344e-07 2.30502e-08 1.94029e-07 -2.66616e-07 5.1238e-08 1.13891e-06 0.0005 
1452 1 -0.00494362 -0.00424365 0.000499713 -0.000514624 -0.00195562 9.56792e-05 2.62274e-08 -9.46346e-08 7.46367e-08 -1.95286e-07 1.07119e-07 1.23497e-06 0.0005 
1459 1 -0.00325736 -0.00420104 0.000499638 -0.000109591 -0.000154795 0.000155722 -2.22167e-07 -4.20503e-07 -5.5845e-08 -3.81799e-08 2.26013e-07 1.24199e-06 0.0005 
1507 1 -0.00168569 -0.004503 0.000499798 -8.98632e-05 8.19351e-05 -5.64602e-06 3.47499e-08 2.60057e-07 1.67522e-07 1.53159e-07 4.4431e-07 1.29705e-06 0.0005 
2217 1 -0.000749149 -0.00415252 0.000499558 -4.02011e-05 9.76807e-05 -9.10011e-06 -1.00328e-07 1.24598e-08 -2.7834e-08 4.0158e-07 6.74762e-07 1.34643e-06 0.0005 
982 1 -0.0129125 -0.00338999 0.000499817 1.60061e-05 0.000105974 1.67216e-06 -1.5366e-07 2.45977e-07 -5.38098e-07 -1.80767e-06 2.94128e-06 1.36056e-07 0.0005 
1544 1 -0.00998685 -0.00359383 0.000499796 -0.000213605 0.000491463 2.30073e-05 2.84243e-07 8.99187e-08 -3.1207e-08 -1.56207e-06 6.06291e-07 8.79929e-07 0.0005 
2007 1 -0.00898973 -0.00351931 0.000499679 -0.000214267 4.55414e-05 7.53114e-05 -1.01599e-07 1.17762e-07 1.40645e-07 -1.10316e-06 4.43559e-07 9.57884e-07 0.0005 
1617 1 -0.00781001 -0.00350984 0.0004996 -0.000339307 -2.15503e-05 1.39758e-05 -8.00406e-08 -1.70867e-07 5.23815e-07 -7.97846e-07 3.02691e-07 1.12803e-06 0.0005 
1178 1 -0.0050091 -0.0032399 0.000499802 0.00159576 -0.00161494 2.70467e-07 -1.20595e-07 9.29457e-08 -4.70624e-09 -9.95501e-08 5.94611e-08 1.08468e-06 0.0005 
230 1 -0.00410942 -0.00367786 0.000499717 -0.000686853 -0.00104333 0.000102019 -3.42234e-07 -1.03108e-07 -2.43572e-07 -8.80188e-08 1.45222e-07 1.23362e-06 0.0005 
1067 1 -0.00243815 -0.00359778 0.000499651 -0.000310931 0.00023174 -3.15289e-05 -1.91618e-07 -5.06757e-08 1.22027e-07 9.68949e-08 2.90235e-07 1.20741e-06 0.0005 
9 1 -0.0131301 -0.0024141 0.000499709 -8.38359e-05 0.000188571 9.09971e-05 3.10383e-07 -4.73395e-08 2.92779e-07 -2.9275e-06 1.27094e-06 -1.46764e-06 0.0005 
2406 1 -0.0116665 -0.00306026 0.00049938 -0.000125437 1.60992e-06 0.000203381 6.46522e-07 1.14301e-07 3.76174e-07 -2.70053e-06 1.55909e-06 6.48273e-07 0.0005 
178 1 -0.00953174 -0.00267922 0.000499745 -0.00010913 -8.58502e-06 3.52402e-05 2.00984e-08 1.05438e-07 -2.7267e-08 -1.83072e-06 3.34552e-07 9.58559e-07 0.0005 
1238 1 -0.00853263 -0.00263006 0.000499455 -2.18968e-05 0.000169867 -3.61473e-05 4.66047e-07 1.30548e-07 2.39644e-07 -1.21801e-06 2.83772e-07 1.03658e-06 0.0005 
1610 1 -0.00701608 -0.00271697 0.000499796 -0.00078367 0.000605565 3.24433e-05 -5.23084e-07 1.23752e-07 1.87889e-08 -7.02848e-07 1.73626e-07 1.14054e-06 0.0005 
391 1 -0.00597647 -0.00298606 0.000499767 0.00161993 -0.00123417 2.39443e-05 2.6143e-07 -1.77437e-08 1.14079e-10 -3.11173e-07 1.26686e-08 1.16098e-06 0.0005 
1798 1 -0.00419512 -0.00265156 0.000499727 -5.06405e-05 0.00106121 4.44604e-05 -7.48215e-07 4.76799e-07 -1.32251e-07 1.11655e-07 1.08643e-07 1.13179e-06 0.0005 
619 1 -0.00327299 -0.0030388 0.000499765 -0.000260761 0.000717163 -2.49611e-05 -5.01215e-07 1.11521e-07 1.146e-07 1.94209e-08 2.17759e-07 1.136e-06 0.0005 
38 1 -0.00230534 -0.00260666 0.000499602 -0.000199997 0.000232336 2.11291e-05 -1.67675e-07 5.80474e-08 -1.73042e-07 7.66309e-08 2.76092e-07 1.13582e-06 0.0005 
736 1 -0.000795098 -0.00293721 0.000499774 -8.0026e-05 0.000759294 1.64598e-05 -2.85363e-07 -9.20769e-07 5.04419e-08 3.14037e-07 2.17783e-07 1.20885e-06 0.0005 
186 1 -0.0124327 -0.00169787 0.000499245 4.88114e-05 0.000136147 9.03696e-05 3.79473e-07 6.66194e-09 -4.02071e-07 -4.37868e-06 -1.2471e-07 -1.75569e-06 0.0005 
459 1 -0.0114389 -0.00208699 0.000499606 0.000140369 7.57658e-05 0.000129301 -3.27341e-07 4.74448e-07 -3.09899e-07 -4.35732e-06 4.32087e-07 3.38169e-07 0.0005 
866 1 -0.0104703 -0.00233485 0.000499674 -4.98809e-05 -3.10591e-05 1.44105e-05 8.32906e-08 5.38466e-07 2.64444e-07 -2.94443e-06 2.5847e-07 6.21195e-07 0.0005 
1411 1 -0.00938918 -0.00167501 0.00049969 -0.000563087 -1.70103e-05 0.000244054 -5.82601e-07 -2.36482e-06 -8.74293e-09 -2.03007e-06 -4.0587e-08 8.48107e-07 0.0005 
1278 1 -0.00773748 -0.00202418 0.000499712 -0.000616861 0.000846335 3.42606e-05 9.3731e-07 -1.23397e-09 3.76558e-08 -1.05397e-06 2.07764e-07 1.1261e-06 0.0005 
62 1 -0.00603326 -0.0019522 0.000499803 -0.00126861 0.000148759 3.17964e-05 -2.166e-07 1.50072e-07 -8.2358e-08 -4.0639e-07 8.51354e-08 1.20387e-06 0.0005 
1669 1 -0.00504566 -0.00212504 0.000499651 -0.000912484 0.000246382 -2.93141e-05 -2.47475e-07 -4.64173e-07 2.58502e-07 -9.42214e-08 8.76877e-08 1.1481e-06 0.0005 
695 1 -0.00150795 -0.00193094 0.000499598 6.49929e-05 0.000144256 1.14072e-05 -2.23802e-08 -1.445e-07 1.75787e-07 2.94138e-07 9.99223e-08 1.10976e-06 0.0005 
1530 1 -0.0132967 -0.00119499 0.000499671 3.26511e-05 0.000323713 -3.65793e-05 8.16567e-09 -5.04251e-07 1.04968e-07 -3.21525e-06 -7.47184e-07 -2.12337e-06 0.0005 
1654 1 -0.0107085 -0.00136406 0.000499528 0.000116285 2.32589e-05 0.00014309 -2.05742e-06 2.87774e-07 -1.29733e-06 -4.60791e-06 -2.84937e-07 2.12524e-07 0.0005 
299 1 -0.00770712 -0.00102427 0.000499807 -0.00190995 -6.97126e-05 8.54571e-06 -8.1339e-07 1.46195e-07 6.82423e-09 -9.48137e-07 1.55597e-07 1.09662e-06 0.0005 
98 1 -0.00668128 -0.00106687 0.000499574 1.67973e-05 0.000219963 8.10671e-05 6.78738e-07 -6.43073e-08 2.04045e-07 -6.66867e-07 2.00345e-07 1.30764e-06 0.0005 
1060 1 -0.00394964 -0.00154912 0.000499594 0.000997922 0.00187504 1.47501e-05 -1.01351e-06 -2.0166e-07 1.72953e-07 9.386e-08 1.53586e-07 1.16662e-06 0.0005 
781 1 -0.00226264 -0.00127525 0.000499767 0.000598622 0.000657206 2.57911e-06 -7.27608e-07 -6.80148e-08 -1.06755e-07 1.57125e-07 8.8283e-08 8.70779e-07 0.0005 
1955 1 -0.000305324 -0.00145694 0.000499558 7.87485e-05 8.52147e-05 2.55346e-05 4.07562e-07 1.08028e-07 3.21737e-07 4.19713e-07 6.91622e-08 1.50254e-06 0.0005 
967 1 -0.0133491 -0.000186754 0.000499559 2.00558e-05 9.50974e-05 0.0002081 -1.69166e-07 -1.63335e-07 2.66789e-07 -1.79178e-06 -2.76241e-06 -5.17778e-07 0.0005 
1675 1 -0.0124511 -0.00062596 0.000499426 0.000216087 0.000139993 0.000111955 -4.71225e-08 2.36468e-07 1.49809e-07 -4.07973e-06 -1.28699e-06 -1.75968e-06 0.0005 
2125 1 -0.0115089 -0.00010675 0.000499648 0.00100271 -0.000684809 0.000207954 -8.51832e-07 1.92526e-09 -2.98832e-07 -2.79336e-06 -1.40693e-06 6.72459e-07 0.0005 
2169 1 -0.009526 -0.000684629 0.000499598 0.000200057 8.62706e-05 7.28413e-05 -1.37688e-06 -1.41154e-06 2.98859e-07 -2.04159e-06 -4.09527e-07 8.44161e-07 0.0005 
6577 1 -0.00856767 -0.00040021 0.000499593 0.000408594 -8.20035e-05 -0.000127169 -7.48033e-07 -2.041e-07 7.58158e-07 -1.21315e-06 -1.65193e-07 9.89702e-07 0.0005 
6638 1 -0.0068161 -7.63413e-05 0.00049955 -0.000263015 0.000116331 -7.00928e-05 -5.00921e-08 -4.59064e-08 -2.02128e-07 -5.37533e-07 2.13537e-07 1.11382e-06 0.0005 
1600 1 -0.00577687 -0.000640511 0.000499768 -0.000560805 0.00143501 -7.10836e-05 2.90304e-07 -7.81141e-08 9.20561e-08 -4.55087e-07 2.52725e-07 1.36345e-06 0.0005 
5393 1 -0.00499586 -1.56691e-05 0.000499681 -0.00150524 0.00199301 4.90804e-05 -2.88871e-07 -1.98283e-07 -1.05623e-07 -2.23512e-07 2.08916e-07 1.0727e-06 0.0005 
108 1 -0.00333851 -0.000745038 0.000499654 -0.000183983 0.00154803 3.15831e-05 8.8166e-08 4.25088e-07 -3.58206e-08 6.18883e-08 8.29632e-08 9.81418e-07 0.0005 
288 1 -0.00183755 -0.000307736 0.000499588 0.000209997 0.000277723 4.56594e-06 -2.95755e-07 1.88382e-07 4.57402e-08 1.93395e-07 -8.98178e-08 1.09129e-06 0.0005 
1934 1 -0.000377556 -0.000458693 0.000499701 -6.47392e-05 0.000500168 -3.89934e-05 3.18683e-08 3.38744e-07 1.12261e-07 3.47947e-07 -1.92757e-07 1.65969e-06 0.0005 
1180 1 -0.00373854 -0.0128162 0.000894549 9.80397e-05 -7.61205e-05 -0.000412161 3.16777e-08 3.95932e-08 -1.65584e-08 -4.39459e-07 -2.57154e-07 2.36252e-06 0.0005 
1047 1 -0.00269581 -0.0130752 0.0009282 0.000434098 -0.000114484 -0.000372636 -2.79488e-08 3.974e-07 6.04637e-07 -2.79912e-07 -7.36864e-08 2.62511e-06 0.0005 
1971 1 -9.99245e-05 -0.0126771 0.00123579 0.000325518 4.47731e-05 2.63686e-07 -3.78855e-07 1.27651e-07 7.44742e-08 2.13932e-07 1.95565e-07 2.92625e-06 0.0005 
2017 1 -0.00572285 -0.0120613 0.00122185 0.000116904 -5.69296e-05 6.3231e-06 3.573e-08 2.97677e-08 5.84492e-08 -3.08017e-08 -2.76013e-07 2.75133e-06 0.0005 
2053 1 -0.0046685 -0.0125074 0.000696644 0.000195283 -7.76408e-05 -0.000658633 9.61451e-08 8.6037e-08 -4.08827e-09 -3.37285e-07 -3.93107e-07 2.10247e-06 0.0005 
427 1 -0.00478112 -0.0109876 0.00113535 0.000110012 1.01522e-05 1.95424e-06 8.45831e-08 -8.18391e-07 6.8303e-07 -1.88018e-07 -3.63806e-07 2.49013e-06 0.0005 
2081 1 -0.00166053 -0.0106773 0.000826359 8.65274e-05 -0.000236906 -0.000429249 1.16668e-07 -6.09076e-07 1.154e-07 3.79063e-07 3.43412e-07 2.17879e-06 0.0005 
1375 1 -0.00811776 -0.00948155 0.000937858 2.68612e-05 4.6201e-05 -1.95523e-05 -1.91996e-07 8.35179e-08 1.10285e-07 -2.1849e-07 3.80315e-07 2.26534e-06 0.0005 
1658 1 -0.00635145 -0.0100568 0.000517655 3.60903e-05 -8.97344e-05 4.32287e-05 -4.17587e-07 -1.34128e-07 1.16974e-07 -2.9285e-07 -1.3951e-07 1.32151e-06 0.0005 
110 1 -0.0045475 -0.0100172 0.00107743 0.000153296 -0.000176665 -0.000251847 -3.88053e-07 -2.09116e-07 4.10047e-07 -7.6431e-08 -2.45339e-07 2.45277e-06 0.0005 
1487 1 -0.0021997 -0.00991774 0.0012317 -0.000180021 0.000316785 0.000118679 3.50847e-07 4.77057e-07 7.20495e-07 3.17054e-07 6.93237e-08 2.98211e-06 0.0005 
2461 1 -0.00958529 -0.00929267 0.00111973 -8.55283e-05 6.62877e-05 -0.000129285 -3.44657e-08 -3.0204e-08 1.42429e-08 -1.94481e-07 3.44116e-07 2.73103e-06 0.0005 
106 1 -0.00622169 -0.00938197 0.00124391 0.000116097 -0.000102577 0.000112611 -3.84281e-07 2.92343e-08 1.21576e-07 -2.40768e-07 2.78861e-08 2.59192e-06 0.0005 
1750 1 -0.0039508 -0.00921999 0.000987789 6.89592e-05 -5.7462e-05 1.76238e-05 -1.8411e-07 2.10397e-08 1.29849e-08 1.23437e-07 5.1438e-08 2.67866e-06 0.0005 
243 1 -0.00695335 -0.0083719 0.00120548 -0.000296852 0.00146769 -2.20365e-05 -2.92584e-07 1.69581e-07 3.83619e-09 -3.40805e-07 6.54026e-07 2.80482e-06 0.0005 
948 1 -0.00518857 -0.00798406 0.000655183 -0.000167685 0.000420099 -0.00243476 2.87727e-07 -3.993e-08 -1.65834e-06 -2.8049e-07 3.76355e-07 1.70405e-06 0.0005 
793 1 -0.00403127 -0.00820163 0.000696703 0.000110565 2.13694e-05 -0.000253704 -3.26744e-07 -1.74118e-07 2.45212e-07 -6.81782e-09 2.54354e-07 1.59788e-06 0.0005 
1694 1 -0.0016901 -0.00851101 0.00123514 0.000238997 0.000561775 -7.75619e-05 -4.81724e-08 7.00247e-07 3.06267e-07 2.31846e-07 -2.6443e-07 2.98796e-06 0.0005 
842 1 -0.0100284 -0.00764256 0.00106161 -9.20762e-05 0.000163695 2.84747e-05 -1.43437e-07 3.23547e-08 1.89114e-07 -3.91487e-07 5.64213e-07 2.24208e-06 0.0005 
239 1 -0.00904349 -0.00742202 0.00116564 -0.000802853 -0.000223585 0.000539903 1.4697e-07 -5.59354e-07 1.4791e-08 -5.12854e-07 3.9169e-07 2.53874e-06 0.0005 
13 1 -0.0030474 -0.0078592 0.001179 0.000360652 0.000629381 -0.000412631 -2.31715e-07 3.38755e-07 -2.5669e-07 2.18474e-08 1.77946e-07 2.92052e-06 0.0005 
1059 1 -0.00722304 -0.00675242 0.00117166 -0.000935935 0.00030387 -0.000341747 8.49041e-07 9.08513e-08 6.28846e-09 -4.87232e-07 1.46817e-07 2.53919e-06 0.0005 
830 1 -0.0048948 -0.0063952 0.00105307 -0.00145272 -0.00167727 -0.000684269 -4.03475e-07 -1.62225e-07 7.57468e-07 -1.55683e-07 3.12049e-07 2.39114e-06 0.0005 
515 1 -0.00312269 -0.00649621 0.000802068 -0.000547034 0.000605094 -0.000655528 -2.21074e-07 -2.42315e-07 -4.71945e-07 -3.43785e-07 2.26554e-07 1.82557e-06 0.0005 
2421 1 -0.000542358 -0.00705358 0.000947366 0.000253588 0.000181358 -0.000526302 -1.19552e-07 -2.93322e-07 -7.51408e-08 1.99047e-07 -1.7415e-07 2.63268e-06 0.0005 
1645 1 -0.00629271 -0.00564531 0.00115581 -0.000861937 0.000277397 0.000105697 -1.25852e-07 -1.35627e-07 3.96653e-07 -2.07676e-07 1.00186e-07 2.63275e-06 0.0005 
100 1 -0.00403769 -0.00565085 0.00124104 -0.000541907 -0.000420829 -0.000288232 -5.22397e-08 5.3308e-08 1.51015e-07 -1.18013e-07 2.91639e-07 2.82598e-06 0.0005 
2208 1 -0.00153578 -0.00568767 0.00105632 1.4555e-05 5.96848e-05 0.00014073 -1.02815e-07 -4.65276e-07 -5.43434e-07 -5.76854e-09 3.20851e-07 2.66421e-06 0.0005 
220 1 -0.00941651 -0.00551991 0.00114551 -0.000473519 -0.000290223 -8.69482e-06 9.62031e-07 7.38651e-07 8.24298e-07 -8.29409e-07 4.39365e-07 2.49463e-06 0.0005 
1211 1 -0.00786661 -0.00549247 0.00101734 -0.000777737 5.81135e-05 -9.10249e-05 2.87599e-07 -2.36894e-07 -2.0017e-07 -4.24465e-07 1.88973e-07 2.04795e-06 0.0005 
565 1 -0.0033543 -0.00488269 0.00122944 -0.000656149 0.000545426 -0.000132738 4.74e-08 7.36604e-07 -2.68052e-08 -8.3334e-08 1.96262e-07 2.64413e-06 0.0005 
2300 1 -0.0118224 -0.0039766 0.00086662 5.13172e-05 -0.000122681 0.000138658 -2.80488e-07 1.69009e-07 -1.4599e-08 -1.58639e-06 2.88133e-06 8.86436e-07 0.0005 
1986 1 -0.00645096 -0.00466331 0.0010543 -0.000217132 0.000327428 -0.000235663 4.1606e-07 3.63689e-07 6.41801e-07 -2.61555e-07 8.3187e-08 2.26912e-06 0.0005 
696 1 -0.00684232 -0.0036852 0.000679437 -0.000136459 0.000489316 -0.000372194 4.12873e-07 5.12103e-07 1.50494e-06 -4.05443e-07 1.54917e-07 1.4164e-06 0.0005 
704 1 -0.00149471 -0.00357411 0.000829678 0.000102891 0.00119891 -0.00139196 -3.68399e-07 -5.14893e-07 4.34995e-07 2.48598e-07 3.82598e-07 1.82391e-06 0.0005 
2160 1 -7.75621e-05 -0.00351977 0.000884258 -0.000112782 0.000367687 -0.000364978 -8.26043e-08 -1.48046e-07 -8.65991e-08 4.00063e-07 4.76272e-07 1.78474e-06 0.0005 
532 1 -0.0107961 -0.00314672 0.000983271 0.000210491 0.000122226 0.000259444 2.98427e-07 2.12799e-07 7.68435e-07 -2.17817e-06 8.27959e-07 1.50484e-06 0.0005 
1201 1 -0.00782783 -0.00278783 0.00119079 -9.7258e-05 -0.000192959 0.000144298 -1.99161e-07 7.15502e-08 2.69716e-07 -1.09588e-06 3.23162e-07 2.62688e-06 0.0005 
297 1 -0.00158602 -0.00264709 0.00119281 -0.000340832 0.00047332 0.000268073 -6.80768e-08 -5.682e-07 -1.14423e-07 1.69722e-07 1.81216e-07 2.75879e-06 0.0005 
2224 1 -0.00854937 -0.00178359 0.00103119 -0.000786624 -7.04462e-05 0.000281353 4.70708e-07 -9.0883e-07 1.19574e-07 -1.0723e-06 1.73246e-07 1.81707e-06 0.0005 
1596 1 -0.006914 -0.00187135 0.0010454 0.000440753 -0.00068811 -0.00116803 1.10336e-06 -4.46986e-08 1.25499e-07 -6.19513e-07 2.97276e-07 2.1095e-06 0.0005 
2261 1 -0.0030242 -0.00191719 0.000586118 0.000490087 0.000905221 -0.00035576 -9.62352e-07 -9.8997e-07 4.30637e-07 5.87906e-08 1.92194e-07 1.24247e-06 0.0005 
48 1 -0.0007324 -0.00213529 0.00109705 -0.000194874 0.000225483 0.000118926 -3.33264e-07 1.61803e-07 4.03026e-07 3.48884e-07 7.79483e-08 2.78478e-06 0.0005 
78 1 -0.0116449 -0.00114848 0.000774992 0.000200045 0.000148744 0.000218629 -1.72625e-07 6.16695e-07 -1.10293e-06 -5.21944e-06 -5.48043e-07 -2.77492e-07 0.0005 
367 1 -0.0100454 -0.00114969 0.00121624 3.91325e-06 3.02243e-06 3.74955e-05 -3.3366e-06 3.57941e-07 -7.02568e-07 -3.39145e-06 -3.64978e-07 1.54303e-06 0.0005 
1540 1 -0.0060506 -0.00128457 0.00124408 4.64597e-05 0.000338064 0.000104428 7.63939e-07 -1.03585e-07 5.22185e-07 -5.00122e-07 2.14487e-07 3.15791e-06 0.0005 
5 1 -0.00509956 -0.00122934 0.000940455 -0.000418088 0.000807498 -0.00133823 5.97324e-07 2.06543e-07 4.13433e-07 -1.75142e-07 1.909e-07 2.23601e-06 0.0005 
1357 1 -0.00117314 -0.001018 0.000731632 0.000192058 8.7071e-05 0.000108377 5.74777e-08 2.61202e-07 3.7071e-07 5.08376e-07 1.35666e-08 2.42702e-06 0.0005 
2095 1 -0.0104772 -0.000398055 0.000610073 2.10749e-05 2.4785e-05 8.76119e-05 -2.46166e-06 1.93309e-07 -9.06767e-07 -3.3936e-06 -5.76693e-07 6.01216e-07 0.0005 
42 1 -0.004291 -0.000658521 0.000799453 -0.00112529 0.00160878 -0.00109109 -1.43026e-07 5.38603e-07 -1.09893e-07 8.94731e-08 1.5963e-07 1.88345e-06 0.0005 
548 1 -0.00257845 -0.000559201 0.00112207 0.000120648 0.000468072 2.13684e-05 -3.53946e-07 2.40166e-08 1.68942e-07 -2.10491e-09 -5.37989e-08 2.12366e-06 0.0005 
805 1 -0.00318347 -0.0129649 0.0017941 -0.000274797 0.000120638 -0.000799931 -1.0719e-06 3.61945e-07 2.51582e-07 -2.83773e-07 -2.33701e-07 3.65329e-06 0.0005 
643 1 -0.00198583 -0.0132016 0.0016208 0.000303042 -9.73393e-05 -0.000348398 3.92639e-07 -4.367e-07 1.06111e-07 -6.81867e-08 2.01729e-07 3.7105e-06 0.0005 
1951 1 -0.000862534 -0.0133222 0.00128248 0.000336425 1.89935e-06 -0.000112509 -1.27414e-07 1.51985e-07 1.9318e-07 -1.58959e-08 2.05738e-07 3.37779e-06 0.0005 
2416 1 -0.000162747 -0.0133229 0.00199665 0.000152912 0.000196863 8.00202e-05 -1.04681e-07 -3.53091e-08 1.37534e-07 9.01049e-08 1.191e-07 4.24733e-06 0.0005 
527 1 -0.00436866 -0.012615 0.00164438 2.63884e-05 -3.97595e-05 -0.000621032 -1.1469e-07 3.1766e-07 -7.41519e-08 -3.16084e-07 -2.7864e-07 3.20372e-06 0.0005 
2327 1 -0.00336858 -0.012054 0.00142543 -0.000214149 0.000115535 -0.000534085 2.05425e-07 2.11569e-08 1.4076e-07 -3.26153e-07 -3.33231e-07 3.2015e-06 0.0005 
886 1 -0.00238895 -0.0122541 0.00142068 -0.0003354 -0.0003398 -0.00011752 -3.2903e-08 -2.60382e-07 -9.73199e-08 -8.78866e-08 8.21931e-08 3.21969e-06 0.0005 
848 1 -0.00140493 -0.0124704 0.0012633 0.000225868 6.72262e-05 -6.09825e-05 -2.03185e-07 -4.71532e-07 -1.74713e-07 4.26091e-08 4.07506e-07 3.38124e-06 0.0005 
125 1 -0.000645544 -0.0119336 0.00163061 5.45763e-05 3.72835e-05 -5.99598e-05 -1.96846e-07 -1.50808e-07 3.95607e-07 2.11734e-07 4.61479e-07 3.80063e-06 0.0005 
2456 1 -0.00679307 -0.0114925 0.00135339 -6.10611e-05 1.15351e-05 8.95406e-06 -3.62287e-07 1.40142e-07 1.31389e-08 2.77028e-08 -2.29509e-07 3.03617e-06 0.0005 
461 1 -0.00541399 -0.011279 0.00186552 0.000113378 -0.000116799 -0.00039933 -2.96356e-07 -6.89976e-08 -7.68028e-08 -1.77864e-08 -2.53858e-07 3.75807e-06 0.0005 
2263 1 -0.00448394 -0.011646 0.00186212 5.58255e-05 -0.000112926 -0.000748634 -3.26448e-08 4.03302e-07 8.81521e-07 -2.12633e-07 -3.16119e-07 3.68321e-06 0.0005 
1851 1 -0.00381113 -0.0111663 0.00129934 0.000250675 0.000384072 -7.0286e-05 1.66758e-07 1.1338e-07 3.82094e-07 -1.6816e-07 -4.22898e-07 3.16836e-06 0.0005 
947 1 -0.00270293 -0.0113071 0.00135487 8.94659e-05 -0.000208569 -2.45924e-06 2.10948e-09 2.53482e-07 3.0018e-07 5.04777e-08 -5.20068e-08 3.30355e-06 0.0005 