ITEM: TIMESTEP
5000
ITEM: NUMBER OF ATOMS
10000
ITEM: BOX BOUNDS mm mm mm
-0.015 0.015
-0.015 0.015
-0.001 0.0554
ITEM: ATOMS id type x y z ix iy iz vx vy vz fx fy fz omegax omegay omegaz radius 
1047 1 -0.00271683 -0.0130746 0.00093608 0 0 0 -0.000439205 -5.25989e-05 0.000153669 -7.74626e-07 -1.98516e-06 -8.6995e-07 0.342965 1.93101 0.688012 0.0005 
1359 1 -0.00148567 -0.0132661 0.000499783 0 0 0 0.00115662 -0.00150466 -0.00017925 -3.46903e-08 5.32997e-08 1.46107e-07 2.97437 2.28621 2.69431 0.0005 
2191 1 8.17582e-05 -0.0133447 0.000499771 0 0 0 -0.000566638 -0.00712795 -1.15861e-13 3.12197e-20 3.98806e-19 3.11247e-16 14.2592 -1.13354 5.927 0.0005 
226 1 0.00109061 -0.0133048 0.000499389 0 0 0 -0.000568138 6.099e-05 0.000118128 7.61605e-07 9.50818e-07 1.23646e-06 -0.0533377 -1.17919 -2.18402 0.0005 
1888 1 0.00208345 -0.0131877 0.000499373 0 0 0 -0.000382012 -6.51882e-05 0.000250451 3.01827e-06 1.02319e-06 -7.4695e-07 0.654224 -0.876723 0.735138 0.0005 
2053 1 -0.00467412 -0.0125056 0.000751029 0 0 0 -0.000579318 0.00048375 -0.00133369 4.78397e-06 1.71218e-06 -1.05609e-05 -2.23064 -1.16853 -3.84553 0.0005 
637 1 -0.00304815 -0.0122427 0.000497289 0 0 0 -0.000643523 0.000115669 -2.19047e-05 2.3594e-06 -1.09436e-06 4.6071e-07 -0.260534 -0.945179 -0.995571 0.0005 
1180 1 -0.00374119 -0.0128177 0.000926029 0 0 0 -0.000783283 0.000368129 -0.00029237 -1.10695e-06 -7.76659e-07 1.30031e-06 -1.11305 -0.414164 2.01279 0.0005 
1496 1 -0.00207172 -0.0124548 0.000497117 0 0 0 -0.000876398 0.000356222 5.46007e-05 -3.42516e-08 -1.08494e-06 1.36372e-07 -0.490683 -1.16693 0.949081 0.0005 
502 1 -0.000773239 -0.0125212 0.00049699 0 0 0 -0.0008652 0.000286474 0.000253487 6.88134e-07 1.50536e-06 -2.70478e-07 -0.494591 -1.43924 1.78731 0.0005 
175 1 0.000514437 -0.0124338 0.000511749 0 0 0 -0.0272878 -0.00743176 -0.0124351 0 0 -1.0273e-05 14.9396 -54.8061 -19.7995 0.0005 
1392 1 0.00165026 -0.0122882 0.000497588 0 0 0 -0.00181489 -0.00060278 0.000477952 2.30507e-06 4.52482e-07 5.96552e-07 1.22448 -3.20466 2.6558 0.0005 
893 1 0.00265845 -0.0120526 0.000499413 0 0 0 -0.000475935 0.00039727 -5.1202e-05 1.44499e-06 -2.74769e-06 -2.01536e-07 -0.833598 -1.14401 -11.0962 0.0005 
545 1 0.00306433 -0.0129938 0.000498378 0 0 0 -8.6147e-05 -5.4282e-07 0.000278004 1.63269e-06 9.35607e-07 -7.99795e-07 0.302624 -0.842135 -0.45017 0.0005 
1169 1 0.00402509 -0.0127299 0.000571633 0 0 0 0.000299052 4.27919e-05 -0.0016373 -2.91076e-06 4.90381e-06 4.03687e-06 -5.04629 5.34332 0.00162712 0.0005 
1521 1 0.00496353 -0.0123949 0.000499454 0 0 0 0.000506762 0.000269698 0.000338334 1.78668e-07 1.04947e-06 1.21662e-06 0.506724 -0.371932 -1.3205 0.0005 
1195 1 -0.00705938 -0.0110987 0.000498441 0 0 0 0.0032577 -0.000103119 0.0015171 2.62485e-06 -3.62509e-07 2.2515e-06 -0.489799 5.35785 -12.441 0.0005 
1356 1 -0.00631322 -0.0117635 0.000499325 0 0 0 0.00418725 -0.000949269 -0.00105547 -9.89949e-06 8.06217e-06 1.13344e-05 0.319505 6.0155 13.7777 0.0005 
939 1 -0.00515148 -0.0116644 0.00049967 0 0 0 0.000482818 0.000876528 -0.000904229 1.32398e-05 3.54315e-06 -1.2058e-05 2.78526 3.94985 2.71075 0.0005 
1758 1 -0.00410767 -0.011718 0.000499771 0 0 0 -0.00191331 0.00274487 -1.92343e-07 1.7045e-13 -2.44077e-13 -1.00922e-09 -5.49099 -3.82749 -14.9929 0.0005 
656 1 -0.00321733 -0.0112597 0.000497658 0 0 0 -0.00129395 -0.000242785 3.28816e-05 3.36441e-06 1.71979e-06 2.49727e-06 0.584155 -3.48282 2.32836 0.0005 
758 1 -0.00220717 -0.011465 0.000498378 0 0 0 -0.00198736 -5.5211e-05 4.292e-05 1.89046e-06 -2.98294e-06 4.05363e-08 0.601183 -3.68597 1.51318 0.0005 
319 1 -0.00112103 -0.0115588 0.000499771 0 0 0 0.000292064 -0.000277128 1.2575e-10 1.81955e-17 -1.72655e-17 -1.80828e-12 0.554383 0.584261 34.7543 0.0005 
511 1 -1.56266e-05 -0.0111197 0.000495481 0 0 0 0.000153506 0.000573316 -2.1553e-05 1.52147e-06 -2.45041e-07 -6.49611e-07 -1.08503 0.389211 -0.918718 0.0005 
1469 1 0.000974426 -0.0114911 0.000499771 0 0 0 -0.00777369 -0.00331462 -4.60845e-07 1.74372e-12 7.43497e-13 4.20416e-09 6.63076 -15.5509 4.95936 0.0005 
237 1 0.00187809 -0.0114356 0.000964197 0 0 0 -0.00252324 -0.00036188 0.000146508 -1.22745e-06 2.58064e-06 2.90773e-06 -2.31227 4.28775 -0.971598 0.0005 
945 1 0.00270335 -0.0110311 0.000497484 0 0 0 -0.000830104 -0.000261632 1.30368e-05 -9.66656e-07 -2.41951e-06 -5.31772e-07 0.458545 -1.77018 6.0612 0.0005 
2348 1 0.00362938 -0.0118153 0.000499494 0 0 0 -0.000140531 -0.000266816 -0.0003358 -2.06355e-06 7.02127e-06 2.68417e-06 4.09494 1.80473 -0.565005 0.0005 
210 1 0.00457025 -0.0114778 0.000499304 0 0 0 -0.000430223 0.000162696 0.000240011 4.53654e-07 2.10204e-06 1.14091e-06 0.0720756 -1.14267 2.88165 0.0005 
988 1 0.00585431 -0.0119436 0.000496694 0 0 0 0.000941423 0.000646953 0.000211783 -7.05356e-07 8.75765e-07 7.78705e-07 -1.17571 1.75385 1.97838 0.0005 
413 1 0.00712121 -0.0112931 0.000498936 0 0 0 0.000964421 0.000471658 5.86973e-05 1.09798e-06 1.14037e-06 1.1126e-06 -0.702436 1.96668 -1.69896 0.0005 
1144 1 -0.00800166 -0.0106576 0.000498883 0 0 0 -0.00235215 0.00262384 0.000332803 1.1615e-05 -9.73325e-06 1.04958e-07 -5.15094 -4.38058 -19.8182 0.0005 
1658 1 -0.00634315 -0.0100579 0.000541524 0 0 0 0.000281239 -0.00292913 -0.00112062 2.97498e-06 -1.6216e-06 -1.30817e-06 19.2066 -1.30783 -11.9698 0.0005 
353 1 -0.00578575 -0.0108918 0.000499183 0 0 0 -0.00268894 -0.000263967 0.000793194 6.87391e-07 1.74359e-07 5.52624e-06 -0.240129 -5.46707 4.6198 0.0005 
1818 1 -0.0039371 -0.0105691 0.00049719 0 0 0 0.00162495 0.00171496 -0.000124206 3.57375e-06 2.53839e-06 9.9814e-07 -2.72417 4.01542 -9.28399 0.0005 
1873 1 -0.00258359 -0.01049 0.000499116 0 0 0 -0.00369054 0.0015991 0.000415189 5.88714e-06 -1.90318e-07 -8.57885e-07 2.31793 6.15614 3.75771 0.0005 
2081 1 -0.00166391 -0.01069 0.00083003 0 0 0 -0.00239431 -0.000633908 -0.00208937 6.30316e-06 -9.30936e-06 -6.74643e-06 -0.407272 -0.439268 -7.05124 0.0005 
2211 1 -0.000755155 -0.0104482 0.000497749 0 0 0 -0.00149634 -0.000955269 -2.64631e-05 1.01017e-06 3.15563e-06 -3.9734e-06 2.29483 -3.30661 6.17099 0.0005 
1116 1 0.000845908 -0.0103452 0.00049685 0 0 0 0.00105975 0.000192247 0.000640727 3.50497e-06 1.03996e-06 1.70692e-06 -0.644246 2.3878 -12.3373 0.0005 
195 1 0.00182625 -0.0105543 0.00049833 0 0 0 -0.000389345 -0.000545348 0.000239141 -9.85887e-07 1.49719e-06 3.70322e-07 2.20015 -0.00242095 -6.10553 0.0005 
1573 1 0.00385368 -0.0107831 0.000497168 0 0 0 -0.000682613 -0.000401052 -3.57829e-05 -4.40844e-06 -1.09051e-06 -3.34035e-07 1.04354 -1.18185 -1.31279 0.0005 
30 1 0.00481976 -0.0105102 0.00049849 0 0 0 -0.000689736 0.000283935 0.000416147 -4.18359e-06 4.31442e-07 -9.03552e-07 -0.705053 -1.18112 -3.25738 0.0005 
285 1 0.0058832 -0.0100596 0.000990552 0 0 0 0.000248095 0.000880392 0.000533234 -3.91877e-06 2.89657e-06 -1.40804e-06 1.86836 -1.4971 -1.47353 0.0005 
1652 1 0.0060331 -0.0109167 0.000498962 0 0 0 -0.00104739 0.000604131 0.000440204 2.45024e-06 1.42814e-06 2.72804e-06 -1.235 -1.82328 -3.52973 0.0005 
2104 1 0.00714728 -0.0102949 0.00050108 0 0 0 -0.00197779 0.000862726 -0.000404703 -4.98716e-06 4.83521e-06 3.07205e-06 -0.447501 -0.334655 7.46078 0.0005 
1081 1 0.00814144 -0.0105809 0.000497619 0 0 0 0.000244838 0.000531654 0.000226268 4.80464e-06 4.96845e-07 2.22687e-06 -0.723341 0.715564 -0.816486 0.0005 
647 1 -0.00884365 -0.0100017 0.000499551 0 0 0 -0.00132201 0.00162585 -0.0010758 1.21034e-06 4.74541e-06 4.06059e-06 -4.15064 -1.46086 3.23053 0.0005 
1375 1 -0.00811264 -0.00947438 0.000930181 0 0 0 -0.000825186 -0.000805584 0.000927319 6.88686e-06 -1.43447e-06 1.30994e-06 4.97188 -5.08808 -8.72328 0.0005 
542 1 -0.00733019 -0.00991719 0.000498284 0 0 0 0.00065102 -0.000164493 0.000703841 3.61786e-06 -4.62254e-06 1.01422e-06 1.14879 2.02921 7.49828 0.0005 
733 1 -0.00679654 -0.00903786 0.000498142 0 0 0 -0.00178348 0.000880963 -0.000194953 2.69814e-06 -7.62996e-06 4.31541e-07 -2.07499 -3.81291 10.7824 0.0005 
1585 1 -0.00535247 -0.00994617 0.000496652 0 0 0 0.000551329 -0.00410922 0.000963312 8.05544e-07 -6.18963e-06 2.34548e-06 8.1796 0.271719 7.90746 0.0005 
1750 1 -0.00397741 -0.00926111 0.000983716 0 0 0 -0.000149978 0.00379771 0.00163235 -1.06425e-06 -1.40609e-07 -5.53091e-06 10.8513 7.32679 -6.15069 0.0005 
2142 1 -0.00326057 -0.00975698 0.000497869 0 0 0 -0.00304056 0.00204259 -0.000161045 4.2128e-06 -1.53755e-06 1.95765e-06 -4.21244 -6.01434 -4.54596 0.0005 
823 1 -0.00237525 -0.00927803 0.000499365 0 0 0 0.00248804 0.00113021 -0.000283564 4.0863e-06 4.16914e-07 -1.18577e-07 -2.07453 4.78984 -7.98661 0.0005 
2090 1 -0.00143864 -0.00973187 0.000659668 0 0 0 0.000352868 -0.00103026 -0.00228824 -6.3928e-07 -3.27527e-06 7.02732e-06 -7.70427 -34.0399 7.87478 0.0005 
760 1 6.71237e-06 -0.00983968 0.000705296 0 0 0 -0.00236268 -0.000200038 0.00136742 -3.00775e-06 1.711e-06 -3.95218e-06 -4.21624 -1.51133 -4.83771 0.0005 
1985 1 0.000860618 -0.00903203 0.000761297 0 0 0 -0.000487502 -0.00105986 -0.00113865 -2.87406e-06 -1.84005e-09 -3.88324e-06 4.0692 1.35197 -1.24118 0.0005 
933 1 0.00152455 -0.00974082 0.000989269 0 0 0 -0.000503131 -0.000189636 -5.58903e-05 -4.25045e-06 6.47355e-07 -1.04985e-06 -2.54492 -5.06658 3.58091 0.0005 
333 1 0.00290239 -0.00975595 0.000499372 0 0 0 -0.001018 0.000316719 0.000366112 2.38377e-06 -4.48143e-06 -9.0217e-07 -0.363813 -1.82904 -0.566107 0.0005 
1196 1 0.00213085 -0.00912169 0.000496991 0 0 0 -0.000394128 0.000331228 -0.000124117 2.50884e-06 -2.70606e-06 1.38449e-06 -0.993754 -0.0127693 0.0232903 0.0005 
2177 1 0.0040933 -0.0091662 0.000496999 0 0 0 -0.000862859 0.00106548 0.000379434 3.08182e-06 -4.07449e-06 -8.04718e-07 -2.07441 -1.79164 -9.55341 0.0005 
341 1 0.00538464 -0.00911875 0.000497309 0 0 0 -0.000572011 0.000669811 -3.2383e-05 2.01072e-06 -2.85e-06 7.5771e-07 -1.51485 -1.05272 -0.0438102 0.0005 
1153 1 0.00640114 -0.00936178 0.000497236 0 0 0 0.00107882 0.000556977 1.2492e-05 -4.01324e-06 2.42786e-06 -3.00207e-06 -1.31721 2.27733 -1.45061 0.0005 
453 1 0.00741095 -0.0093319 0.000498501 0 0 0 4.05393e-05 0.000149778 -0.000222677 2.33493e-06 4.114e-06 5.34926e-07 0.081682 -0.12502 -12.0169 0.0005 
1518 1 0.0084078 -0.00939447 0.000499524 0 0 0 -0.000198114 -0.00294316 3.46474e-05 2.56186e-07 -3.64195e-06 -9.84453e-07 5.87038 -0.623487 5.85684 0.0005 
126 1 0.009403 -0.00947928 0.000499152 0 0 0 0.000112235 -0.000112898 -8.2918e-05 3.70944e-07 1.06899e-06 -1.45445e-07 -0.442814 0.449779 -0.152658 0.0005 
529 1 -0.0102048 -0.0086084 0.000499933 0 0 0 -0.000966749 9.80135e-05 -0.0010129 -3.39381e-06 1.24779e-07 4.17931e-06 -3.66542 -0.488651 1.03995 0.0005 
359 1 -0.00933751 -0.00811239 0.000497968 0 0 0 -0.00196265 -0.000393435 6.3684e-05 2.61773e-08 -3.6818e-06 2.10512e-06 1.5305 -3.76307 -0.394365 0.0005 
2330 1 -0.00886864 -0.00899338 0.000495508 0 0 0 0.000467011 0.00102981 0.000479996 4.76079e-06 -3.00501e-06 -3.99067e-08 -1.83861 1.348 6.08753 0.0005 
1505 1 -0.00807902 -0.00836129 0.000499582 0 0 0 -0.00836012 -0.0014734 -0.000493484 3.20183e-08 -2.10261e-06 4.6405e-07 2.04311 -16.7479 1.45324 0.0005 
1443 1 -0.00575881 -0.00889996 0.000498105 0 0 0 -0.000379931 -0.000597613 1.05154e-05 5.55362e-07 -5.11544e-06 -1.40395e-06 1.64094 0.988364 -5.44165 0.0005 
948 1 -0.00517867 -0.00801427 0.000787649 0 0 0 0.000581332 -0.000923068 -0.000270084 -5.78079e-06 -1.17675e-06 3.46827e-06 -3.8877 0.164531 -8.64894 0.0005 
1221 1 -0.00476026 -0.00887398 0.000498064 0 0 0 -0.00134391 -0.00190734 0.000115044 -4.30179e-07 1.87677e-06 1.78088e-06 4.46713 -2.91819 3.55067 0.0005 
793 1 -0.00403981 -0.00822554 0.000740558 0 0 0 -0.000715652 -0.00247039 0.0012196 -4.42353e-06 5.97847e-06 -8.77763e-09 -3.31837 1.62256 -5.80213 0.0005 
388 1 -0.00322316 -0.00874898 0.000499881 0 0 0 0.00110716 -0.000344366 0.000914642 -4.32261e-07 1.7888e-06 6.47244e-07 0.429474 0.0155464 12.8812 0.0005 
2042 1 -0.00234229 -0.00827612 0.000499606 0 0 0 0.000425177 0.00248628 0.000167252 1.5954e-06 -3.4104e-07 3.6787e-06 -5.43999 0.878231 -7.49083 0.0005 
714 1 -0.00108468 -0.00881214 0.000496864 0 0 0 -7.03732e-05 -0.000315404 0.000270635 -2.31828e-07 -2.87535e-06 -3.37829e-07 0.429802 0.654598 -0.946071 0.0005 
462 1 -8.74283e-05 -0.00886795 0.000497321 0 0 0 -0.000490513 -0.000492195 -4.55464e-05 3.92199e-07 -1.04285e-07 -2.65907e-06 1.33337 -0.648617 1.55766 0.0005 
1137 1 0.00146144 -0.00827902 0.00049775 0 0 0 -0.000478199 2.72457e-05 0.000252869 3.61344e-06 2.96475e-07 2.01928e-06 -0.464534 -0.790497 2.20771 0.0005 
1861 1 0.00301869 -0.0086674 0.000495831 0 0 0 -0.000963499 0.000893756 0.000563077 2.14461e-06 -2.36269e-06 -8.8506e-07 -1.67129 -2.39037 1.42123 0.0005 
2077 1 0.00447682 -0.00809684 0.000499771 0 0 0 -0.00768978 0.00325627 3.24605e-15 3.34481e-20 -6.02847e-21 0 -6.51403 -15.3831 -16.6375 0.0005 
2127 1 0.00700369 -0.00847995 0.000820328 0 0 0 0.0016716 0.000741386 0.000369622 4.52851e-06 8.04611e-06 -4.40254e-06 4.01826 -5.36873 6.20533 0.0005 
2245 1 0.00808754 -0.00842869 0.000497093 0 0 0 0.0018486 0.000600961 -3.15264e-05 3.4802e-06 -4.09315e-06 -2.22757e-07 -1.01495 3.71886 1.92993 0.0005 
742 1 0.00963064 -0.00850802 0.00049733 0 0 0 0.000707446 -0.00056279 -0.000547999 -2.2176e-06 3.13011e-06 -1.9311e-06 0.367734 1.57601 -1.09136 0.0005 
361 1 0.0105744 -0.00814929 0.000499439 0 0 0 -0.00711755 -0.00880218 0.000453112 8.35318e-07 -9.06136e-07 -3.42935e-06 -8.27631 8.66369 22.2985 0.0005 
1539 1 -0.0108359 -0.00780139 0.000497511 0 0 0 -0.00126938 0.00168956 0.000311988 1.16079e-06 -9.77142e-07 -3.04239e-06 -3.23349 -2.9426 4.22274 0.0005 
986 1 -0.00812979 -0.0073629 0.000499416 0 0 0 -0.00242702 -0.0019822 -0.000178431 4.28008e-07 -6.23698e-07 1.99518e-06 3.84259 -4.91984 -13.0088 0.0005 
1847 1 -0.00709781 -0.0077047 0.000497427 0 0 0 7.1079e-05 0.0003484 0.000257913 7.42154e-08 -4.34082e-06 -1.69904e-09 -0.422547 0.288143 -9.07205 0.0005 
2252 1 -0.00613398 -0.00797417 0.000498601 0 0 0 0.000707722 0.00101134 0.000386418 -1.89707e-06 -1.86609e-06 -1.70181e-08 -2.34493 1.31893 1.99324 0.0005 
1447 1 -0.00561176 -0.00712095 0.000498881 0 0 0 -0.00111006 0.00133224 -0.000139245 -4.81042e-06 5.04227e-06 -7.51527e-07 -2.67769 -2.17507 -4.1677 0.0005 
1848 1 -0.00461579 -0.00724229 0.000497333 0 0 0 -0.00144166 0.000135971 -0.00052846 -1.91761e-07 -2.09656e-06 6.48306e-07 -0.0444104 -3.21144 14.4705 0.0005 
2417 1 -0.00359483 -0.00736424 0.000498542 0 0 0 -9.85052e-06 -0.00173839 3.04722e-05 -1.43316e-06 3.76657e-06 -1.03205e-06 2.22575 0.0452568 4.58914 0.0005 
1462 1 -0.00259816 -0.00730935 0.000497129 0 0 0 0.00012831 -0.000279227 -9.268e-05 -1.22737e-06 -4.23519e-06 -6.9408e-07 0.185167 0.310446 -1.19018 0.0005 
46 1 -0.00132218 -0.00784116 0.000499798 0 0 0 0.000331059 -0.000509919 0.000424095 9.43454e-07 -2.80577e-06 3.527e-07 0.225768 0.151025 -0.205976 0.0005 
1432 1 -0.000181642 -0.00787358 0.000498986 0 0 0 -0.000912978 -0.000542707 0.00098287 1.81072e-06 -6.19799e-07 -1.22416e-06 1.45614 -2.5535 -1.29101 0.0005 
2421 1 -0.000538017 -0.007068 0.000969219 0 0 0 -0.000117966 0.00123632 -0.000257221 1.27255e-06 -3.62306e-06 -5.29712e-07 -4.18135 -0.952952 -2.54327 0.0005 
1546 1 0.0012941 -0.00729178 0.00049871 0 0 0 0.00103321 0.000833577 0.000340296 -4.03736e-06 -4.39191e-06 -3.57908e-06 -1.51377 2.33215 -2.65193 0.0005 
835 1 0.00236461 -0.00785293 0.000498859 0 0 0 -4.68365e-05 -0.000343542 0.00039839 3.25695e-06 2.12259e-06 2.6473e-07 0.28121 0.186461 -2.98321 0.0005 
185 1 0.00343348 -0.00764004 0.000499771 0 0 0 -0.00188021 -0.00170225 3.24606e-15 7.40658e-21 4.33379e-21 0 3.40528 -3.76129 -75.7372 0.0005 
2296 1 0.00521926 -0.007351 0.000498783 0 0 0 -0.000525814 -0.000224737 0.00031871 -8.9237e-08 -1.28325e-06 8.93505e-07 0.361027 -1.20413 2.61605 0.0005 
2072 1 0.00652552 -0.00766705 0.000497162 0 0 0 0.000136362 0.000152455 0.000434738 -9.81436e-07 1.55471e-06 -1.01617e-06 -0.515977 0.399848 -0.95588 0.0005 
170 1 0.007264 -0.00699742 0.000497226 0 0 0 0.00123917 -0.00108087 -0.000249707 2.46453e-06 2.35621e-06 1.16546e-06 1.95079 2.55211 -2.42891 0.0005 
149 1 0.00830454 -0.00740979 0.000499275 0 0 0 0.00233543 1.90252e-05 -0.000334934 3.90217e-06 2.36199e-06 -2.33197e-07 -0.342506 4.22917 -1.69309 0.0005 
1760 1 0.00976997 -0.00752001 0.000497125 0 0 0 0.00339316 -0.00137004 8.66961e-05 -6.09089e-06 3.0832e-06 -8.66473e-07 3.21076 6.38193 -4.49348 0.0005 
2133 1 0.0111476 -0.00733055 0.000498407 0 0 0 -0.00553285 -0.00914149 -0.000203204 1.8143e-06 1.28973e-06 -4.68782e-06 17.5974 -11.8122 -25.0644 0.0005 
2195 1 -0.0116014 -0.00660589 0.000497773 0 0 0 0.000375851 0.000139318 7.56242e-05 -1.52873e-06 1.68117e-06 4.43354e-07 -0.0773699 1.11994 -0.406632 0.0005 
1429 1 -0.0106084 -0.00682422 0.000499771 0 0 0 -0.00338028 0.00161087 -1.15542e-10 1.9177e-16 -9.13866e-17 1.35409e-12 -3.22247 -6.76212 3.70462 0.0005 
1293 1 -0.0100027 -0.00600484 0.000497834 0 0 0 -8.17794e-05 -0.000189659 -8.42082e-05 1.3323e-06 1.24668e-06 1.51022e-06 0.381965 -0.428495 -0.190073 0.0005 
551 1 -0.00960001 -0.00692634 0.000496913 0 0 0 -5.58795e-06 0.000187483 0.000108953 -1.48732e-07 -1.29615e-06 -5.8632e-07 -0.190333 0.136633 1.71304 0.0005 
1263 1 -0.00880053 -0.00629932 0.000499771 0 0 0 0.00170353 -0.00208029 2.78166e-15 7.72636e-21 -1.48984e-20 -5.71984e-17 4.16154 3.40785 -1.1364 0.0005 
490 1 -0.00778725 -0.00635119 0.000497887 0 0 0 0.00208791 -0.000315621 -1.03658e-05 -8.00002e-06 -5.43264e-06 -1.14296e-06 0.638801 4.75757 5.95318 0.0005 
1485 1 -0.00646839 -0.00656548 0.000499268 0 0 0 0.00100135 0.000188344 0.000428798 -6.29026e-06 2.22206e-06 -1.40454e-06 -0.333132 2.14238 19.8945 0.0005 
1101 1 -0.00560444 -0.00601659 0.000497099 0 0 0 -0.00050075 0.00203634 -0.00026867 -8.10887e-07 4.79803e-06 -2.13654e-06 -3.83461 -0.869431 14.1419 0.0005 
74 1 -0.00405135 -0.00640177 0.000499007 0 0 0 0.000656812 0.0018735 0.000339104 -1.55035e-06 -3.83123e-06 8.61951e-07 -3.86717 1.81035 -2.81974 0.0005 
515 1 -0.00310732 -0.00650804 0.00080473 0 0 0 0.000714864 -0.000381799 0.000474729 -1.09349e-06 -2.22564e-06 9.02164e-07 3.4282 -1.66528 -1.24779 0.0005 
266 1 -0.0022562 -0.00609105 0.00049662 0 0 0 0.000676896 0.000449098 0.000331247 -1.92666e-06 -3.94529e-06 -7.34212e-07 -1.04482 2.03062 2.47271 0.0005 
2336 1 -0.00168482 -0.00691071 0.000541562 0 0 0 0.000375216 -0.0005 0.000137827 -4.97838e-07 -1.95084e-06 -9.10022e-08 -0.906032 -1.27198 0.525059 0.0005 
1477 1 -0.000920618 -0.00627118 0.000497024 0 0 0 0.000595186 -0.000458311 0.000180624 -2.41384e-06 3.51362e-06 -1.29321e-06 1.01899 1.43086 -1.04762 0.0005 
701 1 0.000339763 -0.00699486 0.000498574 0 0 0 0.0002485 -0.000333586 -1.89062e-05 6.03967e-07 -2.81952e-06 1.82616e-06 0.70798 0.477614 0.764797 0.0005 
1367 1 0.000935016 -0.00617734 0.000499771 0 0 0 0.00338281 -0.00229413 7.05584e-13 1.16462e-18 -7.93022e-19 -7.52529e-15 4.58931 6.76717 2.3014 0.0005 
227 1 0.00193711 -0.00599378 0.000499391 0 0 0 -0.00152941 -0.00175878 0.000429943 3.09977e-06 -6.07056e-07 -8.60764e-07 3.52681 -2.94153 2.68052 0.0005 
148 1 0.00244091 -0.00685711 0.000498863 0 0 0 0.000321649 -0.000361158 0.000595363 4.81139e-07 3.45737e-06 -1.44652e-06 0.45997 -0.00401054 2.11841 0.0005 
2412 1 0.0038101 -0.00655736 0.00049775 0 0 0 0.000496998 -0.00059794 0.000161028 4.32496e-06 -2.22799e-07 3.38663e-06 1.15383 1.19046 4.17271 0.0005 
1310 1 0.0047747 -0.006505 0.000796365 0 0 0 -0.000842234 0.000993781 0.000900956 -4.94582e-07 -7.00038e-07 -3.93514e-06 -9.29627 -6.05335 8.94748 0.0005 
1648 1 0.0063131 -0.00669147 0.000498379 0 0 0 0.000855214 0.000253577 0.000724739 6.92725e-07 2.95407e-06 3.12775e-07 0.245308 0.463132 -0.224137 0.0005 
1165 1 0.00771634 -0.00607738 0.00049804 0 0 0 0.00209012 0.00186572 0.000139633 -1.76424e-06 -1.00229e-06 1.04346e-06 -3.9477 3.38222 1.30623 0.0005 
287 1 0.00903929 -0.00672972 0.00049747 0 0 0 -0.00594933 0.00339597 -0.000276909 6.18635e-07 -5.07009e-06 -1.56099e-06 -6.71405 -11.7968 59.8092 0.0005 
2122 1 0.0103597 -0.0067154 0.000498563 0 0 0 0.00272367 -0.00109789 -0.000319145 -1.99934e-06 1.5187e-06 4.59258e-07 2.43024 4.6987 5.04341 0.0005 
1398 1 0.0117183 -0.00637417 0.000499771 0 0 0 -0.00283662 -0.00454179 -3.66628e-12 4.94375e-18 7.92281e-18 8.68302e-15 9.08567 -5.67454 8.67934 0.0005 
1091 1 -0.0121737 -0.00548432 0.000497526 0 0 0 -6.74146e-05 -0.000306625 -7.60761e-05 -4.91854e-07 3.29833e-06 1.36189e-06 0.56311 0.0616161 -0.61404 0.0005 
606 1 -0.0109848 -0.00581945 0.000499777 0 0 0 0.000336718 0.000204456 6.69835e-05 -2.42141e-06 1.41126e-06 -3.18748e-08 1.49219 0.886052 -0.489805 0.0005 
53 1 -0.0086816 -0.00528581 0.000496741 0 0 0 -0.000103389 -0.000240611 0.00014379 2.98295e-06 -2.62292e-09 -4.35685e-07 0.358543 -0.249063 -1.21304 0.0005 
1248 1 -0.0070169 -0.00571402 0.0004984 0 0 0 -0.00185697 0.000872517 0.000170138 2.01031e-06 3.06483e-06 1.57482e-07 -0.994507 -4.76333 0.409361 0.0005 
1211 1 -0.00785033 -0.00549422 0.00100575 0 0 0 -6.38543e-05 -4.16121e-05 0.000543482 4.19551e-07 -5.47515e-06 -1.09649e-07 -0.0100109 -0.362772 2.1298 0.0005 
817 1 -0.0046779 -0.00562353 0.000497986 0 0 0 0.000572727 0.00295541 0.000496662 1.33412e-06 9.79794e-07 1.3091e-07 -6.34221 0.523405 4.23996 0.0005 
1969 1 -0.00335503 -0.00559157 0.000497364 0 0 0 0.000472653 0.0003881 0.000537379 -6.05573e-07 -5.00944e-07 -8.88378e-07 -2.17691 1.1545 2.604 0.0005 
262 1 -0.000970502 -0.00511937 0.000498893 0 0 0 0.000959464 9.69361e-05 -0.000388382 -2.71929e-06 3.3577e-06 -5.27963e-08 0.296417 1.9306 -0.092689 0.0005 
740 1 -8.99736e-05 -0.00559286 0.000498081 0 0 0 -4.33591e-05 0.000586307 -3.19449e-05 -2.62471e-07 4.11933e-06 3.24009e-06 -1.40436 -0.47489 1.84731 0.0005 
1997 1 0.000769519 -0.00525917 0.000883077 0 0 0 -0.000163432 0.000772349 7.98517e-05 4.20213e-06 2.91042e-06 8.97506e-07 4.99843 1.55726 0.0610404 0.0005 
1442 1 0.00292003 -0.00574752 0.000495786 0 0 0 0.00112868 0.000888543 7.05577e-05 6.11737e-06 -1.76551e-06 9.95516e-07 -1.91354 2.01636 21.0582 0.0005 
2011 1 0.00393314 -0.00555322 0.000499617 0 0 0 0.000464854 0.00146268 -0.00028441 5.4339e-06 -1.49082e-05 5.36152e-06 -3.0428 0.815497 -19.95 0.0005 
827 1 0.00549881 -0.00588587 0.000497652 0 0 0 0.000349994 -0.000471215 -3.93735e-05 -4.70192e-07 -8.16781e-07 -1.56401e-06 0.666741 1.03936 -8.7204 0.0005 
1071 1 0.00675674 -0.00579723 0.000497434 0 0 0 0.000913778 0.000822926 0.000109048 1.70166e-06 1.49504e-06 -4.31268e-07 -1.89207 1.14756 0.732531 0.0005 
1340 1 0.00859024 -0.00551472 0.000498111 0 0 0 0.00115452 -0.00213985 -4.42204e-05 3.46735e-06 3.04675e-06 3.43305e-07 4.23597 2.3348 -10.1928 0.0005 
1468 1 0.0095984 -0.00590033 0.000498118 0 0 0 -0.00399794 0.00532959 0.000682205 3.7627e-06 -5.4363e-06 2.82209e-06 -11.1165 -7.98029 -22.2983 0.0005 
2044 1 0.0106566 -0.00576273 0.0004973 0 0 0 0.00284553 -0.00105511 -0.000239359 -2.90811e-06 6.19099e-07 -6.20335e-07 1.65192 6.0649 -4.57809 0.0005 
981 1 0.0117822 -0.00536833 0.000499771 0 0 0 -0.00283478 -0.00339609 4.71878e-12 -6.21805e-18 -7.44672e-18 1.94727e-14 6.79374 -5.67085 -14.309 0.0005 
890 1 -0.012549 -0.00455814 0.000498898 0 0 0 -2.95043e-06 -3.20724e-05 0.000214319 -1.76741e-06 1.27277e-06 1.24722e-06 0.21376 -0.387134 0.15542 0.0005 
900 1 -0.0113664 -0.00489548 0.000499464 0 0 0 -0.000597429 0.000189411 0.000516441 3.80394e-06 5.17032e-07 -2.11151e-06 -0.515031 -1.74428 1.65233 0.0005 
1315 1 -0.0103101 -0.00484085 0.000496662 0 0 0 -0.0004798 0.000198196 -8.3828e-05 3.24624e-06 -6.00739e-07 8.6092e-07 -0.597102 -0.821653 0.18482 0.0005 
12 1 -0.00939926 -0.00442985 0.000499515 0 0 0 -0.00103822 0.000755875 0.000107364 3.13694e-06 -1.06682e-07 -1.11225e-06 -1.41452 -1.34638 2.1388 0.0005 
1415 1 -0.00839812 -0.00432839 0.000498126 0 0 0 -0.00116653 0.000239666 4.78493e-05 1.89888e-06 5.30807e-07 -3.73614e-08 -0.903703 -2.15191 3.49748 0.0005 
93 1 -0.00728861 -0.00463203 0.000499052 0 0 0 -0.00103429 0.000504023 0.000262958 8.01223e-07 3.92405e-08 -6.23811e-07 -0.947955 -1.89697 1.92223 0.0005 
1403 1 -0.00564641 -0.00494676 0.000498982 0 0 0 -0.0014565 -0.00200257 0.000709457 -2.54245e-06 -4.06602e-06 9.48052e-07 -3.24468 -5.24185 -0.658554 0.0005 
2181 1 -0.0039484 -0.00478905 0.000497969 0 0 0 5.5864e-05 -0.000481137 9.16041e-05 -2.48263e-07 8.25896e-07 -6.49005e-07 0.986839 0.449654 -1.7203 0.0005 
1459 1 -0.00316888 -0.00416434 0.000497102 0 0 0 -0.000602033 -5.35868e-05 0.000313583 -2.20007e-06 1.76861e-06 2.13747e-07 0.238369 -1.40882 4.83375 0.0005 
152 1 -0.00257568 -0.00496789 0.000499609 0 0 0 0.000272157 7.35794e-05 -5.37307e-05 -1.7008e-06 -6.04439e-08 -1.27187e-06 0.849935 0.335225 -3.24599 0.0005 
1507 1 -0.00173859 -0.00442352 0.000499625 0 0 0 0.000396033 -0.000263596 0.000208653 -8.53067e-07 -6.00257e-07 -5.64472e-07 0.665905 0.364491 2.46346 0.0005 
2217 1 -0.000781945 -0.00413758 0.00049756 0 0 0 6.95207e-05 0.000751899 0.000207837 1.7705e-07 3.08244e-06 2.02064e-07 -1.28006 -0.334205 0.0579682 0.0005 
723 1 0.000104379 -0.00460361 0.000499672 0 0 0 -0.00230356 0.000943574 -2.93564e-05 -4.96355e-06 3.97699e-07 -2.2226e-06 -2.11317 -4.46338 -1.79566 0.0005 
1623 1 0.00157747 -0.00481593 0.000498348 0 0 0 0.000405067 0.000380149 0.000239809 1.45546e-06 6.49132e-07 1.54461e-06 -0.125969 0.709386 -3.94831 0.0005 
2199 1 0.0026105 -0.00438836 0.000500096 0 0 0 -0.000343549 0.000779405 -0.00111465 -2.62104e-06 -5.79003e-07 -4.95366e-06 5.67124 -2.17772 -5.58745 0.0005 
971 1 0.0036037 -0.00449975 0.00049621 0 0 0 -0.000259516 0.000176619 -0.000516683 4.16264e-06 -2.88409e-06 -1.62036e-06 -1.47302 0.6999 3.84238 0.0005 
384 1 0.00457327 -0.00474484 0.000499657 0 0 0 0.000486593 0.00194454 -0.000765896 2.35489e-06 3.28183e-06 -2.95211e-06 -3.86931 1.53799 -1.29316 0.0005 
688 1 0.0055743 -0.00485172 0.000499771 0 0 0 0.00150628 0.00591817 -3.62782e-11 -2.59176e-17 -1.01834e-16 6.19076e-14 -11.8391 3.01325 -11.0316 0.0005 
248 1 0.00657466 -0.00448197 0.0004978 0 0 0 -0.00123101 -0.00116329 -0.00033856 -2.55313e-06 -5.28082e-06 9.14739e-08 2.33901 -3.00596 -9.33789 0.0005 
45 1 0.00751839 -0.00480698 0.000497666 0 0 0 -0.000559901 -0.00178297 0.000220503 -1.75569e-06 -2.62715e-06 -1.22346e-06 3.40671 -0.387343 8.31568 0.0005 
261 1 0.0083139 -0.00437551 0.000919221 0 0 0 0.000684588 -0.000709355 -0.00356959 -1.97277e-06 4.28365e-06 -9.49106e-06 -3.58544 9.01806 -5.08142 0.0005 
1319 1 0.00923722 -0.00444898 0.000499018 0 0 0 -0.00136171 -0.00143874 0.000279076 2.37705e-06 8.49333e-07 -2.39492e-06 2.79967 -2.69131 7.76734 0.0005 
570 1 0.01017 -0.00481024 0.000499163 0 0 0 -0.00116819 -0.00409111 0.00016401 1.95223e-06 -8.29957e-06 1.42379e-06 8.16934 -2.12572 -17.8295 0.0005 
832 1 0.0110114 -0.00421956 0.000495583 0 0 0 0.00124713 -0.000545043 0.000418252 3.46313e-06 -2.74246e-06 2.1422e-06 0.740784 2.49787 4.59749 0.0005 
2457 1 0.0125031 -0.00467402 0.00049977 0 0 0 -0.00270755 -0.00467557 4.31664e-06 -5.62231e-12 -9.46122e-12 -4.02516e-09 9.35329 -5.41635 10.6906 0.0005 
982 1 -0.0128201 -0.00347271 0.000497679 0 0 0 -0.0104098 -5.76811e-05 0.000141303 -1.00492e-06 2.0826e-06 -1.76055e-07 -0.0387956 -20.8682 70.9698 0.0005 
2300 1 -0.0118219 -0.00398115 0.000865973 0 0 0 -0.000153848 0.000517774 0.000165973 -9.10563e-07 1.9384e-06 1.35314e-06 1.12501 2.57682 1.76305 0.0005 
2406 1 -0.0116617 -0.00306665 0.000497267 0 0 0 -0.00110538 0.000599378 0.000198547 7.19025e-07 -2.08841e-06 -1.95637e-06 -1.27194 -1.80468 -0.0414342 0.0005 
2 1 -0.010893 -0.0040154 0.000499401 0 0 0 -0.00066856 0.000748417 -6.93811e-05 3.06929e-06 -1.08026e-06 -4.66868e-07 -2.01298 -1.48762 -0.854587 0.0005 
532 1 -0.0107938 -0.00314597 0.000981342 0 0 0 -0.000718346 0.000957911 -0.000353203 -9.62419e-07 -9.86121e-07 -1.8369e-06 1.3905 2.79316 1.13173 0.0005 
1544 1 -0.00999067 -0.00356738 0.000499771 0 0 0 0.00120104 0.00148311 -4.16619e-11 -2.97764e-17 -3.67702e-17 3.09352e-12 -2.96689 2.40262 -7.54986 0.0005 
2007 1 -0.008986 -0.00352019 0.000499955 0 0 0 -0.000920846 0.000325276 -7.66082e-05 1.62054e-06 1.06454e-06 -7.24791e-07 1.05887 1.50511 -3.21877 0.0005 
1617 1 -0.00781957 -0.0035132 0.000498041 0 0 0 -0.000774499 -0.000857782 0.000483598 5.36213e-06 1.14483e-06 7.77089e-07 1.77786 -1.75631 -7.69041 0.0005 
696 1 -0.00687717 -0.00371215 0.000763136 0 0 0 -0.000936492 -0.0025485 0.000829719 4.82058e-06 -3.27627e-07 3.86599e-07 -2.77855 1.49945 4.92045 0.0005 
2064 1 -0.00595802 -0.00399834 0.000496091 0 0 0 -0.000300485 -0.00110304 0.000187373 3.12049e-06 -1.18174e-06 1.11439e-06 2.61 -0.380502 -2.02011 0.0005 
1452 1 -0.00495648 -0.003991 0.000498646 0 0 0 -0.00235656 -0.00154124 -0.000121021 -4.78804e-06 -3.75533e-06 -1.47049e-06 3.2941 -5.17428 -11.6228 0.0005 
230 1 -0.00403893 -0.00359389 0.000497086 0 0 0 -0.0010704 -0.00152929 -5.53431e-05 -3.75071e-06 -3.02823e-06 -1.52119e-06 2.92928 -1.96465 13.5969 0.0005 
619 1 -0.00322827 -0.0030074 0.000499685 0 0 0 -0.00164564 -0.000121505 -6.90792e-05 -2.41851e-08 -5.67492e-07 -8.51061e-07 0.218209 -3.29191 2.76573 0.0005 
1067 1 -0.0023824 -0.0035434 0.000497089 0 0 0 -0.000477607 0.000507803 0.000122859 -1.02451e-06 9.09392e-07 1.00658e-06 -0.801645 -0.892497 0.998747 0.0005 
704 1 -0.00147607 -0.00355429 0.000918172 0 0 0 -0.000540416 0.00077766 -0.000343548 -2.89353e-06 9.54497e-07 -1.2608e-06 2.32544 1.39211 0.38697 0.0005 
2160 1 -7.62953e-05 -0.00356669 0.000911666 0 0 0 0.000338206 0.000168462 0.00121956 -2.10477e-06 6.76584e-06 8.70646e-08 4.49534 1.32843 0.0761349 0.0005 
344 1 0.000779223 -0.00386654 0.000496067 0 0 0 -0.000191078 -0.000142036 0.000316451 -1.81399e-06 3.90129e-06 1.39328e-06 -0.383208 -0.181352 -2.80478 0.0005 
1353 1 0.00177651 -0.00383753 0.000497277 0 0 0 8.01644e-05 0.000861491 -0.000329031 -1.22722e-07 3.71568e-07 6.98611e-07 -1.29752 0.978038 4.95009 0.0005 
1828 1 0.0029435 -0.00334223 0.000497158 0 0 0 0.00117572 -8.01056e-05 0.000598033 -2.8542e-06 -1.74157e-06 1.05013e-06 0.774221 2.16639 4.04333 0.0005 
667 1 0.00391963 -0.00355244 0.000498268 0 0 0 0.000584419 -0.000151924 -0.000103715 -1.3884e-06 -3.34317e-06 -1.81373e-06 0.058916 0.196495 -5.16204 0.0005 