ITEM: TIMESTEP
55000
ITEM: NUMBER OF ATOMS
10000
ITEM: BOX BOUNDS mm mm mm
-0.015 0.015
-0.015 0.015
-0.001 0.0554
ITEM: ATOMS id type x y z vx vy vz fx fy fz f_dragforce[1] f_dragforce[2] f_dragforce[3] radius 
1359 1 -0.00149232 -0.0132663 0.000499702 -0.000132294 -4.04334e-05 5.65849e-06 -1.64381e-07 -4.74986e-08 8.55979e-10 4.89832e-09 1.51411e-08 1.56347e-06 0.0005 
637 1 -0.00304779 -0.0122407 0.000498642 -9.5606e-06 2.03071e-05 3.90266e-06 -2.36299e-08 2.64351e-09 -2.70387e-09 -6.54649e-10 6.27467e-08 1.02506e-06 0.0005 
1496 1 -0.0020715 -0.0124512 0.000498661 2.6345e-06 5.78045e-05 1.95471e-05 -3.34023e-08 -1.14395e-08 1.78733e-08 -5.03581e-10 3.80019e-08 1.11298e-06 0.0005 
502 1 -0.000771846 -0.0125184 0.000499013 1.30351e-05 0.0001027 1.21687e-05 -4.01164e-08 2.95538e-09 1.38991e-08 -4.09713e-09 1.14188e-08 1.0125e-06 0.0005 
1195 1 -0.00706244 -0.0111027 0.000499507 -3.70918e-05 -2.13388e-05 6.14883e-06 1.47685e-09 4.5915e-08 -3.96881e-08 -2.11906e-07 5.19627e-08 1.28661e-06 0.0005 
1356 1 -0.00631247 -0.0117635 0.000499526 5.78061e-06 2.18922e-06 1.78416e-06 -2.82769e-08 2.59243e-08 1.3915e-09 -1.6678e-07 1.22447e-07 1.45228e-06 0.0005 
939 1 -0.00514879 -0.0116607 0.000499634 5.40641e-06 1.48643e-05 1.56355e-06 -1.33636e-08 3.353e-08 -1.17029e-09 -8.94356e-08 1.05598e-07 1.08184e-06 0.0005 
1758 1 -0.0041488 -0.0116586 0.000499793 8.82906e-06 5.13952e-05 -1.05258e-06 -3.59171e-09 5.48576e-08 1.5045e-08 -2.72909e-08 8.05575e-08 9.41051e-07 0.0005 
656 1 -0.00321965 -0.0112578 0.000499155 2.7527e-06 3.30326e-05 1.22946e-05 -4.65329e-08 8.07537e-09 -1.7165e-08 -1.64195e-08 7.84326e-08 9.71065e-07 0.0005 
758 1 -0.00220731 -0.0114605 0.000499792 -1.74367e-05 8.69183e-05 1.04663e-06 -2.32217e-08 1.1494e-08 -1.09161e-08 -3.30222e-08 4.45578e-08 9.74593e-07 0.0005 
319 1 -0.00120393 -0.011512 0.000499765 7.73574e-05 1.91137e-05 6.04238e-06 1.29546e-07 -1.06684e-07 7.77701e-08 -5.28765e-08 2.26376e-08 9.76366e-07 0.0005 
511 1 -1.47981e-05 -0.0111173 0.000497667 -2.06344e-05 -2.79639e-05 2.02821e-05 -2.97519e-08 -1.42294e-08 3.1991e-08 -3.56409e-08 -1.60284e-09 8.4539e-07 0.0005 
1144 1 -0.00802281 -0.0106704 0.000499771 -1.06897e-05 -1.31077e-05 5.07957e-07 -2.02655e-08 5.85153e-08 -1.50659e-08 -2.77873e-07 -3.73781e-08 1.21652e-06 0.0005 
353 1 -0.00578196 -0.0108871 0.000499571 3.70795e-05 3.01349e-05 -4.51998e-06 8.11972e-08 1.25286e-07 -2.88759e-08 -1.21361e-07 4.9432e-08 1.00099e-06 0.0005 
1818 1 -0.00393721 -0.0105639 0.000498357 -2.1696e-05 3.70808e-05 2.10554e-05 -3.71214e-08 2.10332e-08 -1.36176e-08 -2.23042e-08 3.91818e-08 9.68107e-07 0.0005 
1873 1 -0.00258393 -0.0104876 0.000499601 9.14241e-06 3.25412e-05 -3.3641e-05 -4.09326e-08 -2.07161e-08 1.79633e-08 -2.67106e-08 8.7833e-10 9.60668e-07 0.0005 
2211 1 -0.000754828 -0.0104459 0.000498752 1.63621e-05 3.16833e-05 6.55175e-06 -8.38746e-08 -4.18036e-08 -4.94224e-08 -6.73842e-08 -3.90834e-08 9.25387e-07 0.0005 
647 1 -0.00885153 -0.00999462 0.00049955 -7.45396e-06 1.88505e-05 1.9997e-06 -2.06468e-08 4.62032e-08 -1.47553e-08 -2.30504e-07 -1.22933e-07 1.18357e-06 0.0005 
542 1 -0.0073355 -0.00993282 0.000499205 -4.17262e-05 -6.59948e-05 2.6146e-07 -3.08408e-08 -5.0124e-08 1.20891e-08 -2.47621e-07 -1.40975e-07 9.08704e-07 0.0005 
1585 1 -0.00535437 -0.00994694 0.000499 -3.52294e-05 7.38781e-05 1.09691e-06 -4.13617e-09 1.39013e-07 1.04822e-08 -6.40359e-08 -4.0984e-08 9.96901e-07 0.0005 
2142 1 -0.00325972 -0.00975151 0.000499345 -2.95086e-06 1.80637e-05 1.00657e-05 1.62658e-08 -1.49152e-08 -1.80588e-08 -1.14428e-08 -9.1319e-08 9.40547e-07 0.0005 
2330 1 -0.00886429 -0.00898858 0.000498751 -5.5642e-06 2.76787e-05 6.3121e-06 2.8959e-08 6.56322e-08 1.38335e-09 -2.23886e-07 -2.0863e-07 8.83032e-07 0.0005 
733 1 -0.00681192 -0.00907028 0.000499129 2.1618e-05 5.27888e-05 1.58078e-06 1.10778e-07 5.55451e-08 5.68489e-09 -1.7822e-07 -1.49891e-07 9.74049e-07 0.0005 
1443 1 -0.0057568 -0.00889541 0.000499366 3.64318e-05 0.000125107 1.67605e-05 7.70045e-08 -7.22685e-08 1.7944e-08 -9.75249e-08 -1.645e-07 9.59841e-07 0.0005 
1221 1 -0.00475741 -0.00887463 0.000499316 3.6711e-05 2.98408e-05 -1.42836e-05 3.70858e-08 6.45838e-08 -1.4327e-08 -4.70243e-08 -1.75013e-07 9.62033e-07 0.0005 
388 1 -0.00321236 -0.00875285 0.00049974 2.90237e-05 2.33056e-05 -6.39243e-06 3.23705e-08 -1.11877e-07 7.04523e-09 -2.16625e-08 -1.4387e-07 9.41084e-07 0.0005 
823 1 -0.00236356 -0.00928134 0.000499751 1.33099e-05 2.83121e-05 -6.72086e-07 8.64657e-08 -4.84218e-08 -1.66973e-08 -8.96632e-09 -1.52023e-07 9.19707e-07 0.0005 
714 1 -0.00108394 -0.00881202 0.000499329 -2.01229e-05 8.89633e-06 -6.50701e-06 1.32681e-08 7.47723e-09 -6.10711e-09 -2.18086e-08 -2.16103e-07 8.72292e-07 0.0005 
462 1 -8.61444e-05 -0.00886689 0.000498958 -4.01098e-05 1.27311e-05 1.79081e-05 -2.09932e-08 1.83803e-08 -1.70133e-08 -7.50442e-08 -1.2823e-07 8.14719e-07 0.0005 
529 1 -0.0102087 -0.00860348 0.000499599 -2.17596e-05 5.03279e-05 7.13237e-06 -4.45993e-10 -2.44114e-09 -6.27916e-09 2.98759e-08 -2.97336e-07 1.29516e-06 0.0005 
359 1 -0.00933979 -0.00810992 0.000498799 9.18089e-06 6.23307e-05 -1.17314e-06 -3.25095e-08 9.173e-09 -5.209e-09 -1.74647e-07 -1.76421e-07 9.4553e-07 0.0005 
1505 1 -0.00808094 -0.00836755 0.000499614 4.77663e-05 2.57538e-05 2.56306e-05 1.56704e-07 2.27467e-08 3.57706e-08 -2.35225e-07 -1.28552e-07 9.40213e-07 0.0005 
2252 1 -0.00613616 -0.00797043 0.000499671 -7.78054e-05 6.02695e-05 -2.16578e-06 5.47723e-08 -8.16111e-08 -2.65727e-08 -1.3174e-07 -1.04777e-07 1.01128e-06 0.0005 
2042 1 -0.00233371 -0.00827552 0.000499785 7.15119e-06 -3.17758e-05 -1.55859e-05 -1.12166e-08 -1.33149e-07 -3.67149e-09 -2.75904e-08 -1.66107e-07 9.66815e-07 0.0005 
1539 1 -0.0108369 -0.00779776 0.000498688 3.7466e-06 1.07473e-05 2.67632e-06 -2.69783e-08 -5.34683e-08 -2.19582e-08 1.27301e-07 -2.47118e-07 1.49838e-06 0.0005 
986 1 -0.00813396 -0.00736911 0.000499692 -3.49353e-05 2.98143e-05 7.81605e-06 1.932e-07 6.41962e-08 1.20756e-08 -3.08053e-07 -9.45736e-08 8.63837e-07 0.0005 
1847 1 -0.00709718 -0.00769424 0.00049896 -8.44012e-05 3.38434e-05 5.28429e-06 7.78763e-08 -1.08147e-07 -2.46752e-08 -2.08695e-07 -8.71065e-08 1.02458e-06 0.0005 
1447 1 -0.0056119 -0.007119 0.000499735 -2.26344e-05 3.59178e-05 -7.01923e-06 -4.8133e-08 4.58953e-08 -2.04658e-08 -1.05706e-07 -7.51311e-08 9.82095e-07 0.0005 
1848 1 -0.00461945 -0.00724098 0.000499028 -2.70401e-05 4.01446e-05 2.16371e-05 -1.8539e-08 4.83263e-08 -1.66325e-08 -1.15619e-07 -1.73297e-08 1.02648e-06 0.0005 
2417 1 -0.00359409 -0.00736258 0.000499579 -4.49942e-06 4.85388e-05 6.74689e-06 9.3812e-08 -3.86231e-08 2.97192e-08 -1.08084e-07 -4.97969e-08 9.98957e-07 0.0005 
1462 1 -0.00259563 -0.00730989 0.000498633 -1.13356e-05 3.64305e-05 1.11146e-05 2.29628e-08 7.36139e-09 -8.58949e-09 -8.57161e-08 -1.28276e-07 9.69845e-07 0.0005 
46 1 -0.00131618 -0.00783986 0.000499631 0.000148209 5.98319e-05 -1.02524e-05 4.43972e-08 1.79152e-08 -2.21694e-09 2.04172e-08 -3.69572e-07 1.05144e-06 0.0005 
1432 1 -0.000187343 -0.0078727 0.000499378 -0.000127209 6.58052e-06 -9.65036e-06 9.08052e-09 -1.14394e-08 -8.83685e-09 2.30785e-08 -2.20007e-07 9.05727e-07 0.0005 
2195 1 -0.0115999 -0.00660422 0.000498611 4.54274e-05 1.18983e-05 8.92995e-06 2.48079e-08 2.54074e-08 -7.23651e-09 3.00132e-07 -8.68059e-08 1.70594e-06 0.0005 
1429 1 -0.0105926 -0.00682804 0.000499791 -1.40619e-05 4.8259e-05 1.19973e-06 -6.46491e-08 -1.24308e-07 -1.79238e-08 1.46098e-07 -1.10612e-07 1.03884e-06 0.0005 
551 1 -0.00959811 -0.00693223 0.000499075 -2.14282e-05 -5.24803e-05 1.55651e-05 -1.23932e-07 -1.07155e-07 3.26086e-08 -5.6971e-08 -1.13187e-07 9.54246e-07 0.0005 
490 1 -0.00778344 -0.00635176 0.000499253 -2.60594e-05 0.000106564 -2.77145e-06 -1.59418e-07 4.84924e-08 2.48966e-08 -3.30131e-07 -6.13687e-08 9.22014e-07 0.0005 
1485 1 -0.00646966 -0.00657492 0.000499731 -0.000169797 -0.000150744 -4.0288e-06 -7.00001e-08 9.29009e-08 1.55629e-08 -1.89379e-07 -1.07003e-07 9.93703e-07 0.0005 
74 1 -0.00405064 -0.00639676 0.000499564 -1.10211e-05 -2.50771e-05 -1.89967e-05 4.58027e-08 6.72194e-09 1.3227e-08 6.01348e-09 3.36202e-08 9.04062e-07 0.0005 
606 1 -0.0109814 -0.00581903 0.00050035 7.37148e-05 1.81376e-05 3.12303e-05 9.71594e-08 -3.97168e-08 1.74826e-08 2.48046e-07 -4.45659e-08 1.13776e-06 0.0005 
1293 1 -0.00999902 -0.00600416 0.000499699 8.47859e-05 -3.99972e-05 2.13391e-06 8.62136e-08 -4.61314e-08 -1.35026e-09 1.965e-07 -2.69466e-08 9.89893e-07 0.0005 
1263 1 -0.00884941 -0.00626933 0.000499793 -5.56097e-05 2.8005e-05 1.28135e-07 -1.2007e-07 -7.87685e-08 -3.20765e-08 -1.50142e-07 -1.04811e-07 8.92693e-07 0.0005 
1248 1 -0.00701838 -0.00570818 0.000499713 6.6783e-05 1.32014e-05 1.81671e-06 -1.13967e-07 2.40321e-08 -1.651e-09 -2.83489e-07 -4.92592e-08 9.49299e-07 0.0005 
1101 1 -0.00560439 -0.00601083 0.000498651 3.21611e-06 2.74012e-05 1.29374e-05 4.60087e-08 8.32461e-08 -7.47078e-09 -1.00506e-07 -7.46845e-08 9.94051e-07 0.0005 
817 1 -0.00467846 -0.00561434 0.000499505 -1.18052e-05 7.76015e-05 9.21802e-06 -4.04436e-08 -5.05335e-08 -1.97492e-08 1.6806e-09 4.76563e-08 9.05998e-07 0.0005 
1969 1 -0.00335365 -0.00559113 0.000499144 -2.14739e-05 2.9698e-05 1.27661e-05 -4.18335e-08 -4.81713e-08 -2.19878e-08 -2.23676e-07 -4.77814e-08 8.76928e-07 0.0005 
266 1 -0.00225349 -0.00609149 0.000498728 -1.59822e-05 5.77027e-05 -1.05467e-06 2.24748e-10 1.18866e-09 -3.74001e-08 -3.01351e-07 -1.77942e-07 8.63315e-07 0.0005 
1477 1 -0.000921329 -0.00626348 0.00049918 -7.69762e-06 5.88653e-05 1.10916e-05 -4.01329e-08 -2.09799e-08 1.09149e-08 -1.70944e-08 -2.55905e-07 1.01168e-06 0.0005 
740 1 -8.79679e-05 -0.00558944 0.000499388 7.84688e-06 2.70624e-05 -8.3895e-06 1.53026e-08 -8.53155e-08 -5.10942e-08 1.69105e-07 -1.44923e-07 8.20808e-07 0.0005 
1091 1 -0.0121735 -0.00548295 0.000498434 6.38098e-06 -2.30841e-06 7.01037e-06 9.6972e-10 -6.1725e-09 -1.31791e-08 2.29979e-07 -4.00843e-08 1.7678e-06 0.0005 
900 1 -0.0113646 -0.00489576 0.000499517 3.084e-06 6.40552e-06 2.96668e-06 2.32037e-08 -2.07333e-08 1.86247e-08 1.54055e-07 -5.53529e-08 9.51544e-07 0.0005 
1315 1 -0.0103112 -0.00483753 0.000498962 3.89473e-05 -7.18899e-06 1.19438e-05 1.60744e-08 3.23783e-09 -2.08551e-08 1.50571e-07 -3.73786e-08 9.69689e-07 0.0005 
53 1 -0.00867614 -0.00528424 0.000498453 2.04744e-05 2.14482e-06 1.27196e-05 -6.60095e-09 -6.49879e-09 -1.58482e-08 -8.18658e-08 -1.3936e-07 9.28046e-07 0.0005 
93 1 -0.00732078 -0.00475516 0.00049957 2.48087e-05 7.86657e-06 -4.03841e-06 -2.75572e-08 -8.67685e-09 -3.66752e-08 -1.52435e-07 -9.32712e-08 9.30666e-07 0.0005 
1403 1 -0.00564721 -0.00495132 0.000499703 -3.08584e-05 -1.99821e-05 6.74956e-06 3.50688e-08 4.93299e-08 -5.35699e-09 -9.723e-08 7.44364e-09 9.30359e-07 0.0005 
2181 1 -0.00395198 -0.00479068 0.000499018 -7.1967e-06 6.15676e-05 -2.83473e-06 -3.62416e-10 -8.04545e-09 -9.54899e-09 -2.1862e-07 -4.82017e-09 8.56969e-07 0.0005 
152 1 -0.00257397 -0.00496631 0.000500286 -1.58459e-05 2.26576e-05 7.8577e-06 -3.48525e-08 -3.97295e-09 6.9681e-08 -2.85737e-07 -5.23082e-08 1.0305e-06 0.0005 
262 1 -0.000966611 -0.00511251 0.000499519 9.66875e-06 2.96805e-05 -4.01087e-06 6.9161e-08 -3.68379e-08 4.46138e-08 -1.17592e-08 -5.76425e-08 1.0457e-06 0.0005 
890 1 -0.0125488 -0.00455678 0.000499745 2.03364e-06 2.92516e-06 5.21516e-06 1.41986e-08 -8.3926e-09 1.5469e-08 9.10088e-08 -3.52525e-08 1.61557e-06 0.0005 
2 1 -0.0108917 -0.00401515 0.000499869 -4.06029e-06 1.61428e-05 1.50773e-05 1.98707e-08 1.30495e-07 -8.4925e-09 5.08131e-08 -8.46405e-08 8.83286e-07 0.0005 
12 1 -0.00938784 -0.00445357 0.000499294 1.80707e-05 1.15023e-06 -1.21227e-06 2.14702e-08 6.15407e-09 3.08902e-09 -1.8414e-08 -9.81724e-08 9.35788e-07 0.0005 
1415 1 -0.00839618 -0.00432501 0.000498891 2.09562e-05 9.9337e-06 4.58426e-06 -2.20637e-08 -6.75986e-09 -6.90666e-09 -8.56127e-08 -1.03992e-07 9.22719e-07 0.0005 
2064 1 -0.00595618 -0.00400052 0.0004983 3.22217e-05 5.44259e-06 1.86763e-05 3.81633e-08 1.05355e-07 -3.37226e-08 -8.15913e-08 4.69871e-08 9.11686e-07 0.0005 
1452 1 -0.00495648 -0.00400089 0.000499687 4.67974e-05 4.31041e-06 6.54489e-06 -1.01375e-07 1.42509e-07 -4.69164e-08 -1.23056e-07 3.22496e-08 8.71919e-07 0.0005 
1459 1 -0.00317162 -0.00416516 0.000498946 2.16552e-05 4.04717e-05 1.88812e-05 -6.22772e-08 -8.70687e-08 -4.49456e-08 -2.83786e-07 1.16893e-08 1.04671e-06 0.0005 
1507 1 -0.00173845 -0.00441825 0.000499703 -3.47108e-05 6.98859e-05 -7.27469e-06 -9.27873e-08 1.58567e-07 7.45576e-09 -1.70689e-07 2.40304e-08 1.07514e-06 0.0005 
2217 1 -0.000782589 -0.004127 0.000499311 -2.86457e-05 7.07521e-05 2.46904e-07 -2.21838e-08 6.25191e-08 -1.75984e-08 6.45169e-08 1.27975e-07 1.07245e-06 0.0005 
982 1 -0.0128886 -0.00348082 0.000499023 -2.71894e-05 6.82289e-05 6.29606e-06 -2.07092e-08 9.15713e-08 4.41064e-09 5.21897e-08 5.12024e-09 1.59503e-06 0.0005 
1544 1 -0.0099848 -0.00359413 0.000499783 8.82969e-06 5.11904e-06 7.09945e-06 -1.04197e-08 4.50478e-08 -1.53011e-08 -2.64317e-08 -6.49423e-08 9.20686e-07 0.0005 
2007 1 -0.00898774 -0.00351893 0.000499815 1.4039e-05 2.05262e-06 2.15589e-06 -1.01263e-08 1.01183e-09 -7.2522e-09 -1.23318e-07 -5.42217e-08 9.6014e-07 0.0005 
1617 1 -0.00781677 -0.00350611 0.000499212 4.17903e-05 3.8131e-05 -2.63478e-06 2.89932e-08 -2.71824e-08 1.54156e-09 -8.69873e-08 -3.58115e-08 9.17636e-07 0.0005 
230 1 -0.00404194 -0.00359667 0.000499454 1.32827e-06 -3.23273e-05 1.02363e-05 5.98881e-09 -2.39642e-08 -4.17375e-08 -1.68089e-07 4.6161e-08 8.63825e-07 0.0005 
1067 1 -0.00238989 -0.00354178 0.000499007 -2.75142e-05 -1.92539e-05 -2.91633e-07 -3.73315e-08 -1.23159e-08 -4.36655e-08 -2.54781e-07 7.74924e-08 9.82004e-07 0.0005 
9 1 -0.0130634 -0.00247628 0.000499659 6.17149e-06 5.12466e-06 -1.63487e-06 2.30035e-08 -3.00957e-08 -8.52485e-09 7.95056e-08 4.91693e-08 1.61197e-06 0.0005 
2406 1 -0.0116642 -0.00306299 0.000498868 3.76219e-06 -7.76062e-07 9.79861e-06 1.42596e-08 -2.94684e-08 -1.80626e-08 6.02744e-08 -1.37868e-08 9.38026e-07 0.0005 
178 1 -0.00953621 -0.00268278 0.000499794 1.42805e-06 -1.95645e-05 1.03613e-08 2.66156e-08 4.09355e-09 -1.11519e-08 -8.55481e-08 -1.49986e-08 9.61056e-07 0.0005 
1238 1 -0.00853121 -0.0026294 0.000499233 -7.61952e-06 1.80762e-05 -1.67674e-06 5.38824e-08 -5.88807e-08 1.90641e-08 -9.09014e-08 -4.58541e-09 9.39318e-07 0.0005 
1610 1 -0.00704495 -0.00271345 0.000499792 0.000103302 0.000190964 4.93712e-08 -3.5478e-08 1.69622e-08 -2.45959e-11 -4.2865e-08 2.88193e-08 9.09271e-07 0.0005 
391 1 -0.00605562 -0.002882 0.0004997 7.52844e-05 -1.37203e-05 1.42303e-05 1.88322e-08 2.36863e-09 -8.22972e-09 1.57568e-08 4.37494e-08 8.90858e-07 0.0005 
1178 1 -0.0050634 -0.00300636 0.00049979 0.000123857 -9.71866e-05 6.78185e-06 2.48733e-08 3.06552e-08 -2.48982e-08 -1.86211e-08 5.12609e-08 8.80416e-07 0.0005 
1798 1 -0.00415559 -0.00258691 0.000499743 7.76416e-05 0.00010957 -2.9007e-06 9.07718e-08 5.22887e-08 -1.98906e-08 -1.94923e-08 5.60142e-08 8.76968e-07 0.0005 
619 1 -0.00323421 -0.0030063 0.000499724 -3.93353e-05 -3.89992e-06 1.37235e-05 1.70681e-08 1.11008e-07 3.03387e-09 -2.10673e-07 1.03041e-07 8.41468e-07 0.0005 
38 1 -0.00236383 -0.00249043 0.000499709 0.000208188 0.000101797 -1.51888e-05 -1.1098e-07 7.11714e-08 3.78954e-08 -2.54813e-07 1.52069e-07 8.30395e-07 0.0005 
736 1 -0.000794361 -0.00295104 0.000499637 -3.87929e-05 -5.59976e-06 -4.71538e-05 -3.46747e-08 -1.92985e-09 6.63886e-08 -8.98902e-08 7.29138e-08 9.76772e-07 0.0005 
186 1 -0.012429 -0.00170346 0.000499045 1.47014e-05 1.08909e-05 3.09571e-06 2.70782e-08 -2.49084e-09 6.69383e-09 1.30068e-07 8.29471e-08 1.0741e-06 0.0005 
459 1 -0.0114501 -0.00208745 0.000499739 -1.98627e-05 -5.3118e-07 2.09469e-07 -1.75574e-08 -7.30215e-09 1.99786e-08 1.34665e-07 7.46388e-08 9.57528e-07 0.0005 
866 1 -0.0104733 -0.00233384 0.000499578 2.79171e-05 -4.6765e-06 2.63481e-06 2.50285e-08 3.85789e-08 -5.64802e-09 3.97714e-08 5.69427e-09 8.9751e-07 0.0005 
1411 1 -0.00938069 -0.00168349 0.000499638 -8.14076e-05 6.92415e-06 1.10346e-05 4.42973e-10 -4.56269e-08 -1.82174e-08 2.49489e-08 8.49598e-09 8.28963e-07 0.0005 
1278 1 -0.00775102 -0.00200454 0.000499644 -2.59981e-05 4.2157e-05 -8.42783e-07 1.15111e-07 -7.43656e-08 -2.69968e-08 -5.95514e-08 4.41929e-08 9.05161e-07 0.0005 
62 1 -0.00595817 -0.00187032 0.000499757 -4.11317e-05 -7.3721e-05 1.412e-05 -5.68735e-08 1.79e-07 -3.66518e-08 2.37612e-09 4.68304e-08 8.89495e-07 0.0005 
1669 1 -0.00496709 -0.00200277 0.000499786 -1.99759e-05 -2.8576e-05 -3.36462e-05 -1.88644e-08 -9.28525e-08 -5.27927e-09 -4.72445e-09 2.34549e-08 8.48747e-07 0.0005 
695 1 -0.00125328 -0.00197781 0.000499351 -2.43473e-05 0.000176811 -2.15752e-05 -7.75613e-08 1.81954e-07 -4.85838e-08 -1.75395e-07 3.88122e-08 9.56831e-07 0.0005 
1530 1 -0.0132944 -0.00120358 0.000499522 4.03266e-06 -1.32644e-06 5.33613e-06 -1.03626e-08 -3.60092e-08 4.32708e-09 1.08973e-07 1.26598e-07 1.69109e-06 0.0005 
1654 1 -0.0107149 -0.00136405 0.000499478 1.39593e-05 -5.59828e-06 7.51706e-06 3.22604e-08 3.62101e-08 -2.04952e-08 1.34631e-07 1.20769e-07 9.75362e-07 0.0005 
299 1 -0.00771647 -0.000989364 0.000499796 -0.000104192 -4.73421e-05 -9.95337e-07 -6.79965e-08 9.76779e-08 -9.17079e-09 -8.88529e-08 1.04491e-07 8.76066e-07 0.0005 
98 1 -0.00667855 -0.00106299 0.000499105 3.51842e-05 6.1238e-06 1.10979e-06 1.68549e-07 -2.06127e-08 -4.95099e-08 -4.46971e-08 9.18022e-08 8.84812e-07 0.0005 
1060 1 -0.00391758 -0.0015735 0.00049922 6.2873e-05 -7.68126e-05 -5.43613e-06 1.08354e-07 2.22565e-07 -3.0765e-08 -1.13562e-07 -6.99287e-08 7.94593e-07 0.0005 
781 1 -0.00217281 -0.00126081 0.00049977 -3.68556e-06 0.00012354 -2.48305e-05 1.59746e-07 1.06915e-07 1.00587e-08 -2.95916e-07 -7.72512e-08 7.9817e-07 0.0005 
1955 1 -0.000343232 -0.00148383 0.000499525 -1.45243e-05 4.14404e-05 -1.55898e-05 -4.9433e-08 3.03261e-08 -6.05017e-08 -6.57009e-08 1.30977e-08 8.70535e-07 0.0005 
1675 1 -0.0124418 -0.000621263 0.000499337 2.48212e-05 1.53118e-05 4.1105e-06 1.16462e-08 -4.28915e-09 -1.46822e-08 1.2378e-07 1.69282e-07 1.07305e-06 0.0005 
2125 1 -0.0115141 -0.000114939 0.000499107 -1.97703e-05 -7.26812e-06 7.20869e-06 8.96219e-08 9.76852e-09 1.5342e-08 9.36492e-09 2.35371e-07 1.0123e-06 0.0005 
2169 1 -0.00953368 -0.000695449 0.000499821 -9.23876e-06 1.01361e-05 -3.24627e-06 3.52687e-08 -1.28563e-08 -2.1914e-08 5.08392e-08 4.17303e-08 8.19192e-07 0.0005 
6577 1 -0.00859093 -0.000364282 0.000498772 -6.28297e-06 -4.86397e-06 9.6272e-07 2.09846e-09 -7.57901e-09 -2.18701e-08 -3.971e-08 7.70214e-08 8.45788e-07 0.0005 
6638 1 -0.00683834 -7.68884e-05 0.000499049 6.37417e-05 6.07965e-06 1.27678e-05 -3.09789e-08 -1.14329e-08 -6.8488e-08 -9.16348e-08 1.1804e-07 8.26162e-07 0.0005 
1600 1 -0.00576866 -0.000646114 0.000499152 7.53617e-05 1.62511e-06 -8.84879e-06 -9.5005e-08 -8.01044e-08 3.27129e-08 -6.18178e-08 6.85969e-08 8.88123e-07 0.0005 
108 1 -0.00326073 -0.000747451 0.000499277 8.89663e-05 3.72861e-05 1.34016e-05 3.17206e-08 7.85861e-08 -2.63564e-08 -2.35248e-07 -1.2129e-07 7.88105e-07 0.0005 
288 1 -0.00178108 -0.000340651 0.000499407 8.09117e-05 0.000202398 7.25494e-06 7.03018e-08 1.50687e-07 -7.23868e-08 -1.68436e-07 -6.41966e-08 8.24518e-07 0.0005 
1934 1 -0.00038796 -0.000485097 0.000499279 -2.51367e-05 7.80719e-05 2.56026e-06 5.69415e-08 6.27936e-08 -3.4555e-08 -2.69263e-08 3.48463e-08 8.53043e-07 0.0005 
1180 1 -0.00374267 -0.0128157 0.000927408 -4.97149e-06 8.48728e-06 5.00023e-06 -2.51914e-08 2.00331e-08 1.34336e-08 9.19961e-10 4.78116e-08 1.9381e-06 0.0005 
1047 1 -0.00271681 -0.0130729 0.000939082 1.5276e-05 2.7815e-05 2.46126e-05 -2.46055e-08 -1.83173e-08 1.13849e-08 -3.2548e-09 3.83288e-08 2.08974e-06 0.0005 
2053 1 -0.00467598 -0.0125047 0.00075076 6.77228e-07 6.10057e-06 2.09937e-06 -3.5236e-08 1.03141e-08 2.06138e-08 -4.93115e-08 8.69186e-08 1.81304e-06 0.0005 
427 1 -0.00477339 -0.0110279 0.00117654 4.53085e-07 3.93151e-05 -8.02031e-06 1.04558e-08 6.67906e-08 -1.18675e-08 -4.71595e-08 6.43067e-08 2.08788e-06 0.0005 
2081 1 -0.00166409 -0.0106892 0.000833177 7.05225e-06 -1.23503e-05 -2.88083e-05 -6.47261e-08 -1.68647e-08 -6.66759e-08 -6.74122e-08 -2.1168e-08 1.54409e-06 0.0005 
1375 1 -0.00811283 -0.00948103 0.000934311 5.14805e-06 1.2288e-05 1.42669e-05 2.85726e-08 3.05101e-08 7.47213e-09 -2.82958e-07 -2.13835e-07 1.68684e-06 0.0005 
1658 1 -0.00634581 -0.0100625 0.000540567 -3.19555e-05 -3.2308e-05 6.13477e-06 -2.08909e-09 9.49405e-08 2.24724e-08 -1.41322e-07 -5.38761e-08 1.07762e-06 0.0005 
110 1 -0.00455785 -0.0100553 0.0010914 -3.8983e-05 6.83742e-05 1.34262e-05 1.79562e-08 8.55801e-08 -1.07248e-08 -6.20988e-08 -2.83846e-08 1.94161e-06 0.0005 
1487 1 -0.00223779 -0.00992826 0.0012517 -0.000112512 6.3517e-06 2.98406e-06 1.0126e-07 -5.56052e-08 1.38648e-08 -7.08437e-08 -1.02276e-07 2.09018e-06 0.0005 
2090 1 -0.00144163 -0.00973372 0.000643613 -6.16379e-05 1.10369e-05 -2.77579e-05 2.07824e-08 -3.61846e-08 -2.26609e-07 -4.15247e-08 -1.34245e-07 1.06435e-06 0.0005 
2461 1 -0.00958442 -0.00929487 0.00111874 -1.20228e-05 7.23044e-06 1.53574e-06 1.39074e-08 6.45308e-09 -7.71898e-09 -1.0064e-07 -2.21245e-07 2.12899e-06 0.0005 
1750 1 -0.00397258 -0.0092519 0.000990524 1.63548e-05 4.0193e-05 3.95788e-05 6.12822e-08 3.69001e-08 -7.2591e-09 -1.45565e-08 -1.57851e-07 1.86937e-06 0.0005 
243 1 -0.00695652 -0.00839138 0.0012187 2.49925e-05 1.56533e-05 5.29592e-05 2.14692e-07 2.84952e-08 7.18309e-09 -1.60811e-07 -5.32601e-08 2.54982e-06 0.0005 
948 1 -0.00518022 -0.00801613 0.00078889 -4.7989e-05 -2.28302e-06 -7.88032e-05 5.08646e-08 7.5757e-08 -2.53387e-08 -1.13247e-07 -8.70311e-08 1.55346e-06 0.0005 
793 1 -0.00403107 -0.00822992 0.000735862 5.10364e-05 2.53357e-06 1.81176e-07 1.04673e-07 -3.31607e-08 -1.37581e-08 -9.31668e-08 -8.94172e-08 1.29803e-06 0.0005 
1694 1 -0.00170346 -0.00853329 0.00123209 -5.62548e-05 -4.83844e-05 -1.84657e-05 -1.47755e-08 -5.03085e-08 -4.83672e-08 -5.53768e-08 -2.24302e-07 2.09497e-06 0.0005 
842 1 -0.0100239 -0.00764351 0.00105764 -2.52307e-05 -6.07217e-05 6.42702e-05 -6.34294e-08 -1.08084e-07 3.65582e-08 -5.3986e-08 -2.20203e-07 1.94069e-06 0.0005 
239 1 -0.00901101 -0.00742096 0.00114345 -9.95635e-06 4.237e-05 4.73752e-05 4.19379e-08 -2.58213e-08 -3.72932e-08 -2.62232e-07 -1.35674e-07 2.10022e-06 0.0005 
13 1 -0.00305018 -0.00786997 0.00118904 -2.21901e-05 5.12096e-05 2.45697e-05 3.28847e-08 2.81068e-08 -4.52374e-08 -7.29589e-08 -9.56609e-08 2.2126e-06 0.0005 
1059 1 -0.00717481 -0.00674204 0.00118875 -0.000119605 3.80606e-05 4.1984e-05 -1.06492e-07 -3.355e-08 -5.4729e-08 -3.1567e-07 -9.07244e-08 2.14733e-06 0.0005 
830 1 -0.0048823 -0.00642202 0.00105267 2.02035e-05 5.6893e-05 6.86412e-06 5.689e-08 1.18299e-07 3.14814e-08 -1.30578e-08 -2.89003e-08 1.87015e-06 0.0005 
515 1 -0.00310682 -0.00650882 0.000807439 -2.01146e-05 3.92281e-05 -7.97156e-07 5.56013e-08 -1.73338e-08 -2.26126e-08 -2.39333e-07 -1.0674e-07 1.36464e-06 0.0005 
2336 1 -0.00168123 -0.00691028 0.000544105 7.93332e-06 2.71429e-05 2.42166e-05 -3.96477e-09 -4.88382e-09 -3.7099e-08 -1.08018e-07 -2.3948e-07 9.30731e-07 0.0005 
2421 1 -0.000540519 -0.00706465 0.00096972 2.04273e-05 8.55238e-05 -1.27863e-05 1.27188e-07 2.76962e-08 -9.44878e-09 2.62479e-08 -3.25403e-07 1.89074e-06 0.0005 
1645 1 -0.0062541 -0.00559955 0.00113516 1.67131e-05 3.3016e-06 6.85572e-05 -1.04648e-08 6.92669e-08 -9.36254e-08 -1.30893e-07 -9.91278e-08 2.15306e-06 0.0005 
100 1 -0.00401432 -0.00569087 0.00124253 -1.33183e-05 0.000168071 3.40197e-05 -1.23314e-08 -9.01477e-08 -4.48535e-08 1.50812e-09 3.57008e-08 2.144e-06 0.0005 
2208 1 -0.00152767 -0.00571113 0.00107029 -2.82038e-05 5.47828e-05 -1.93074e-05 -4.4891e-08 -2.2863e-08 2.53288e-08 -1.54379e-07 -1.68917e-07 1.98241e-06 0.0005 
220 1 -0.00940235 -0.00552158 0.00114048 2.8468e-05 -4.83537e-07 3.89653e-05 1.32356e-10 -6.27175e-09 -1.40275e-08 7.7146e-08 -8.93623e-08 2.14148e-06 0.0005 
1211 1 -0.00784953 -0.00549894 0.00101619 7.6296e-05 0.000123863 -1.05107e-05 -2.78131e-08 4.97104e-08 -5.20418e-08 -2.1586e-07 -9.75118e-08 1.76948e-06 0.0005 
565 1 -0.00328982 -0.00481725 0.0012471 -6.00717e-05 3.63393e-05 1.86604e-05 1.06864e-08 -4.78769e-08 -3.03114e-08 -2.32871e-07 -3.8038e-08 2.20086e-06 0.0005 
2300 1 -0.0118215 -0.00397831 0.000867708 5.33027e-06 -5.20255e-06 2.9204e-05 1.13426e-07 -4.32295e-08 -6.4321e-08 6.12916e-08 -3.68413e-08 1.70975e-06 0.0005 
1986 1 -0.00647303 -0.00462678 0.00107943 8.83929e-05 2.48399e-05 0.000104704 7.76718e-08 7.63527e-08 -2.34332e-08 -1.29001e-07 -9.47974e-09 1.92749e-06 0.0005 
1236 1 -0.00459902 -0.0045895 0.00123273 3.81792e-05 6.30505e-05 8.34572e-05 -5.43061e-08 3.84902e-09 -1.07831e-07 -1.84836e-07 -1.74347e-08 2.08818e-06 0.0005 
483 1 -0.00250749 -0.00419499 0.00124556 -2.10087e-05 2.3648e-05 5.49204e-05 -3.96742e-08 -4.00804e-08 -9.01864e-08 -3.61135e-07 -2.18604e-08 2.57674e-06 0.0005 
696 1 -0.00687334 -0.00370403 0.000762312 4.04883e-05 3.41288e-05 3.86794e-07 3.03296e-08 4.9605e-10 -5.05326e-09 -9.03695e-08 -2.13261e-08 1.33375e-06 0.0005 
704 1 -0.00148229 -0.00354354 0.000917915 7.9065e-06 -2.34405e-05 -8.67605e-05 -2.41458e-07 1.51714e-07 2.21506e-07 -1.11565e-07 5.79343e-08 1.67847e-06 0.0005 
2160 1 -7.62088e-05 -0.0035563 0.000915828 -3.45523e-06 1.46434e-05 5.06139e-05 -1.61472e-08 8.37724e-08 -1.37451e-07 -8.89513e-09 1.09709e-08 1.58312e-06 0.0005 
532 1 -0.0107955 -0.00314626 0.000984686 6.24921e-06 2.73935e-05 3.35488e-05 4.69443e-08 1.24773e-08 -3.9724e-08 -2.96721e-09 -8.22591e-08 1.75739e-06 0.0005 
1201 1 -0.00782396 -0.0027826 0.00118916 -8.90598e-05 -4.59951e-05 8.86438e-05 9.21585e-08 -4.96971e-08 -3.57159e-08 -7.74187e-08 9.71432e-09 2.17598e-06 0.0005 
2224 1 -0.00855768 -0.00179918 0.00105538 -2.39879e-05 3.82791e-05 -4.47702e-05 6.94224e-08 -1.76052e-08 -5.09766e-08 -5.60774e-08 2.52322e-08 1.7522e-06 0.0005 
1596 1 -0.00697394 -0.00180739 0.00109659 -2.89251e-06 9.75418e-06 -1.04568e-05 1.32766e-07 -5.69652e-08 -6.68405e-08 -5.97264e-08 6.77025e-08 1.79713e-06 0.0005 
2261 1 -0.00298324 -0.00176464 0.000798378 9.94093e-05 3.05935e-05 -9.92134e-05 6.22834e-08 2.03391e-07 1.09137e-07 -2.47136e-07 7.19083e-10 1.28752e-06 0.0005 
78 1 -0.0116473 -0.0011523 0.000789918 1.43412e-05 -8.19705e-07 4.33642e-06 4.36041e-08 4.02389e-08 -3.63546e-08 1.86198e-07 1.63925e-07 1.57509e-06 0.0005 
367 1 -0.0100612 -0.00114148 0.0012224 -6.47606e-06 5.78613e-06 6.60828e-06 1.09405e-08 2.34909e-08 -1.6599e-08 1.31878e-07 6.65839e-08 2.13222e-06 0.0005 
5 1 -0.00506296 -0.0011435 0.00100204 8.5611e-05 -7.35771e-05 -6.37181e-05 -4.3599e-09 8.95435e-08 1.04765e-07 -5.54018e-08 -5.35544e-08 1.62124e-06 0.0005 
1357 1 -0.00116903 -0.00104714 0.000853656 2.75073e-05 0.000144819 1.22642e-05 1.21444e-08 1.56704e-07 -1.18678e-07 -1.78275e-07 -4.44512e-08 1.45396e-06 0.0005 
967 1 -0.0133493 -0.000207576 0.000558789 9.78436e-06 -1.93981e-06 1.73049e-05 -4.44146e-09 -2.58069e-08 2.13298e-09 1.21537e-07 2.4131e-07 1.7464e-06 0.0005 
2095 1 -0.0104796 -0.000402362 0.000632966 -4.23935e-06 1.28901e-05 1.39869e-05 7.83092e-08 2.66715e-08 -3.20959e-09 4.20036e-08 1.54982e-07 1.1434e-06 0.0005 
42 1 -0.00417971 -0.000690882 0.000888682 0.000111859 -7.71271e-05 1.82361e-05 1.95964e-08 1.34801e-07 9.52022e-08 -1.08227e-07 -1.87453e-07 1.36384e-06 0.0005 
548 1 -0.0025195 -0.00054877 0.00113983 9.57091e-05 8.06985e-05 1.60395e-05 1.15176e-07 6.55807e-08 -1.0682e-07 -2.69743e-07 -1.07576e-07 1.9594e-06 0.0005 
805 1 -0.0029234 -0.0130124 0.00191391 7.06479e-06 -3.06866e-05 3.11508e-05 -3.87832e-08 -3.5521e-08 3.57456e-08 -5.56596e-08 2.76015e-08 3.33161e-06 0.0005 
643 1 -0.00198992 -0.0132019 0.00161199 3.93419e-05 1.27415e-05 7.96752e-07 2.36497e-08 1.93256e-08 4.35513e-08 -3.30163e-08 1.36155e-08 2.99044e-06 0.0005 
1951 1 -0.000908939 -0.0133191 0.00130984 -8.41277e-05 8.56107e-06 -1.71686e-05 -1.42505e-07 -2.78851e-08 -4.6462e-08 -2.82355e-08 7.83287e-09 2.51795e-06 0.0005 
1971 1 -0.000139054 -0.0126732 0.00125612 -0.000154132 3.00996e-05 0.000155047 -1.39901e-07 -5.23314e-09 1.06808e-07 -6.63404e-08 -3.20551e-08 1.98802e-06 0.0005 
2416 1 -0.000185327 -0.0133487 0.00199916 -0.000146301 -5.7646e-06 5.1377e-05 -1.93089e-07 -6.48517e-09 -1.33404e-08 -1.26705e-07 -4.09689e-09 3.24985e-06 0.0005 
2017 1 -0.00570921 -0.0119589 0.00127209 1.2881e-05 -1.04493e-05 -1.01822e-05 -1.17135e-08 1.3662e-08 -1.71391e-08 -1.30753e-07 1.20372e-07 2.4864e-06 0.0005 
527 1 -0.00434964 -0.0126217 0.00169764 1.47967e-05 6.05256e-06 3.27219e-05 -4.24091e-08 9.88085e-09 -1.07208e-08 -2.82155e-08 5.63313e-08 2.96363e-06 0.0005 
2327 1 -0.00336605 -0.0120789 0.00148778 -3.78809e-05 1.41667e-05 1.25829e-05 -6.45836e-08 9.82458e-08 3.80635e-08 -2.38603e-08 5.46562e-08 2.65584e-06 0.0005 
886 1 -0.0023865 -0.0122695 0.00143179 -3.35949e-05 2.91914e-05 0.000133587 -2.05269e-08 1.46177e-08 -9.10906e-08 -3.75448e-08 2.33184e-08 2.54973e-06 0.0005 
848 1 -0.00142103 -0.0124619 0.00125617 1.55304e-05 7.07191e-05 4.03234e-05 -5.37654e-08 3.52131e-08 2.98889e-08 -1.40438e-08 1.56176e-08 2.4433e-06 0.0005 
125 1 -0.000678265 -0.0119448 0.00167769 -5.00692e-05 0.000108583 0.000146515 -5.98822e-08 5.15372e-09 1.57065e-08 -1.12036e-07 3.83647e-09 2.9186e-06 0.0005 
2456 1 -0.00683374 -0.0114685 0.00140125 -4.0421e-05 1.53102e-05 2.86674e-05 1.28189e-08 -2.73294e-08 -1.27617e-07 -1.67943e-07 1.23446e-07 2.62259e-06 0.0005 
461 1 -0.00542279 -0.0112638 0.00193325 -9.82594e-06 -2.44741e-05 -3.79047e-05 1.8882e-08 4.40046e-08 -4.2325e-08 -8.60931e-08 9.6433e-08 3.35465e-06 0.0005 
2263 1 -0.00451003 -0.0116706 0.00196032 2.34828e-05 4.25377e-05 -3.92601e-05 6.85797e-08 2.75761e-08 -6.50146e-08 -2.36227e-08 7.46252e-08 3.3479e-06 0.0005 
1851 1 -0.00379692 -0.0111942 0.00131251 -6.69158e-06 4.67241e-05 4.82065e-06 -1.05766e-08 5.3526e-08 -3.19184e-08 -1.18868e-08 8.79876e-08 2.42936e-06 0.0005 
947 1 -0.00270834 -0.0113266 0.00135483 -2.11416e-05 3.59463e-05 4.41904e-05 -1.78282e-08 2.99402e-08 -9.13804e-08 -4.81354e-08 4.73928e-08 2.45024e-06 0.0005 
2112 1 -0.0017282 -0.0115196 0.00138499 -2.73192e-05 6.76305e-05 6.93621e-05 -3.56138e-08 3.08664e-08 2.93111e-09 -7.64021e-08 1.28868e-08 2.5008e-06 0.0005 