ITEM: TIMESTEP
25000
ITEM: NUMBER OF ATOMS
10000
ITEM: BOX BOUNDS mm mm mm
-0.015 0.015
-0.015 0.015
-0.001 0.0554
ITEM: ATOMS id type x y z vx vy vz fx fy fz f_dragforce[1] f_dragforce[2] f_dragforce[3] radius 
1359 1 -0.00148579 -0.0132645 0.000499789 1.45017e-05 1.2094e-05 -1.24268e-07 1.28669e-08 1.07962e-08 -5.23708e-10 2.44628e-08 4.65582e-08 7.84038e-07 0.0005 
2191 1 -1.41863e-05 -0.01335 0.000499786 0.000741113 -7.84895e-07 1.07353e-08 5.60805e-09 -3.74109e-10 1.32448e-11 3.71853e-08 -1.24268e-08 5.44335e-07 0.0005 
637 1 -0.00304796 -0.0122425 0.00049768 6.57808e-06 6.23439e-06 5.30474e-06 -9.85461e-09 -3.13292e-09 -2.00074e-09 -2.33367e-08 4.72599e-08 4.86656e-07 0.0005 
1496 1 -0.00207196 -0.0124543 0.000497573 3.76306e-06 6.70066e-06 6.64856e-06 -6.43688e-09 1.69344e-09 4.99672e-09 9.95848e-09 6.136e-08 5.64814e-07 0.0005 
502 1 -0.000773407 -0.0125205 0.000497336 7.87149e-06 1.74182e-05 7.77697e-06 -2.78878e-09 9.26465e-09 4.79728e-09 3.37204e-08 5.35505e-08 5.17383e-07 0.0005 
1195 1 -0.00705779 -0.0110977 0.000498905 3.83973e-06 -5.263e-06 7.69859e-06 -2.18714e-09 -6.42796e-09 9.87692e-09 -9.65006e-08 2.08688e-08 5.97375e-07 0.0005 
1356 1 -0.00631292 -0.0117636 0.000499172 9.03963e-06 -3.79298e-06 -5.61164e-07 -6.05766e-09 -3.84215e-09 1.7625e-09 -7.93689e-08 5.90249e-08 6.75407e-07 0.0005 
939 1 -0.00515035 -0.0116621 0.000499439 7.3865e-06 1.0485e-05 2.00215e-06 -4.13056e-09 -1.52804e-08 -1.20343e-08 -5.55131e-08 4.93729e-08 5.04977e-07 0.0005 
1758 1 -0.00415036 -0.0116648 0.000499781 1.4532e-05 3.18126e-05 4.13214e-07 -5.5876e-09 2.53212e-08 -1.51495e-10 -3.81074e-08 3.9198e-08 4.42871e-07 0.0005 
656 1 -0.00321839 -0.0112601 0.000498269 -3.59555e-06 6.69091e-06 7.14693e-06 -1.08336e-08 -4.52628e-09 1.15264e-09 -1.62351e-08 5.03789e-08 4.51631e-07 0.0005 
758 1 -0.00220815 -0.0114648 0.000498451 -9.70592e-07 5.78195e-06 4.14396e-06 -5.42616e-09 1.22231e-09 5.43928e-09 -8.43159e-09 6.19018e-08 4.54959e-07 0.0005 
319 1 -0.00115057 -0.0115494 0.000499747 -0.00037393 0.000249587 -3.65207e-06 1.39289e-08 1.5937e-09 -4.9185e-09 1.46579e-09 6.20739e-08 4.5769e-07 0.0005 
511 1 -1.59699e-05 -0.0111189 0.000496018 5.30539e-06 1.79224e-05 8.00221e-06 -2.6157e-08 -1.47533e-08 9.95145e-09 1.26763e-08 7.06963e-10 3.85436e-07 0.0005 
1144 1 -0.00800333 -0.0106569 0.00049921 4.22186e-06 -4.14748e-06 2.71658e-06 2.01816e-08 -3.07742e-09 5.86255e-09 -1.31601e-07 -2.59088e-08 5.68346e-07 0.0005 
353 1 -0.005787 -0.0108917 0.000499388 2.88719e-05 3.38158e-05 -5.80017e-06 4.30127e-09 -5.59153e-09 3.8492e-09 -6.01234e-08 1.83148e-08 4.62616e-07 0.0005 
1818 1 -0.0039363 -0.0105678 0.000497476 9.3283e-06 2.61146e-05 3.75389e-06 1.3456e-08 2.69544e-08 -7.56163e-09 -1.94357e-08 1.64449e-08 4.50009e-07 0.0005 
1873 1 -0.00258526 -0.0104891 0.000499227 -2.53438e-06 1.82899e-05 3.20872e-06 -1.273e-08 -9.07503e-09 1.34909e-08 -9.64423e-09 2.00161e-08 4.47746e-07 0.0005 
2211 1 -0.000755961 -0.0104478 0.000498101 -2.66137e-06 1.68485e-05 -6.30261e-07 -1.32055e-08 -1.34942e-09 2.97688e-09 -8.58864e-09 1.80839e-08 4.31346e-07 0.0005 
647 1 -0.00884559 -0.0100002 0.000499083 3.76068e-06 -3.45043e-06 2.25436e-06 9.19219e-09 -3.79384e-09 -4.87847e-09 -1.13107e-07 -6.58265e-08 5.57835e-07 0.0005 
542 1 -0.00732977 -0.00991795 0.000498657 3.78667e-06 -2.56016e-06 5.1068e-06 4.15164e-09 -1.67121e-09 8.99973e-10 -1.12974e-07 -7.97311e-08 4.34442e-07 0.0005 
1585 1 -0.00535201 -0.0099509 0.000497946 1.00813e-05 3.34883e-05 7.01826e-06 1.7874e-09 -2.82485e-09 1.87185e-09 -2.93127e-08 -3.22994e-08 4.58253e-07 0.0005 
2142 1 -0.00325996 -0.00975348 0.00049865 1.13028e-06 3.21183e-05 4.00894e-06 -2.79067e-08 -1.78894e-08 -8.96174e-10 -7.29266e-10 -3.89149e-08 4.32087e-07 0.0005 
2330 1 -0.00886772 -0.00899254 0.000496257 2.7609e-06 8.68855e-06 6.92305e-06 -4.40178e-09 -3.239e-09 5.57971e-10 -1.1123e-07 -1.07836e-07 4.12532e-07 0.0005 
733 1 -0.00681186 -0.00906315 0.000498449 -5.06164e-06 7.19298e-07 5.6964e-06 1.71459e-08 -9.5394e-09 -1.05219e-09 -8.14494e-08 -9.28078e-08 4.63079e-07 0.0005 
1443 1 -0.00575867 -0.00889931 0.00049847 7.90068e-06 9.7653e-06 9.30166e-06 6.28478e-09 -1.84334e-08 -3.8057e-09 -4.19062e-08 -9.86374e-08 4.48114e-07 0.0005 
1221 1 -0.00476022 -0.00887468 0.000498547 1.59382e-05 -1.81384e-05 2.88709e-06 2.995e-09 -1.39858e-08 1.36238e-09 -1.49099e-08 -1.01519e-07 4.49476e-07 0.0005 
388 1 -0.00321844 -0.00875253 0.000499754 3.1047e-05 -4.98766e-05 1.10769e-07 2.01149e-08 -2.47605e-08 -1.75838e-09 2.36817e-09 -7.29993e-08 4.32278e-07 0.0005 
823 1 -0.00236595 -0.00927519 0.000499774 5.44723e-05 -1.04773e-05 -2.68183e-07 9.92562e-09 -1.27983e-08 -3.7231e-09 7.53593e-09 -6.39749e-08 4.23043e-07 0.0005 
714 1 -0.00108399 -0.00881305 0.000498038 5.30826e-06 1.18822e-05 7.2501e-06 -1.44135e-09 -4.48371e-09 -7.38363e-10 6.69214e-09 -9.27409e-08 4.01208e-07 0.0005 
462 1 -8.67556e-05 -0.00886835 0.000497943 -1.1044e-06 1.53861e-05 9.81123e-06 -4.69482e-09 -6.05058e-09 -3.85424e-09 -1.72693e-08 -5.72419e-08 3.73656e-07 0.0005 
529 1 -0.0102057 -0.0086073 0.000499916 5.65835e-06 -3.02451e-06 3.07198e-06 -1.04721e-08 1.76606e-08 -4.53e-09 3.88744e-09 -1.45742e-07 6.0204e-07 0.0005 
359 1 -0.00933797 -0.00811225 0.000498139 -5.85135e-07 1.40841e-05 -2.05565e-07 2.35462e-09 4.26848e-09 -4.42698e-09 -9.5913e-08 -8.90515e-08 4.37828e-07 0.0005 
1505 1 -0.00808261 -0.00836666 0.000499664 8.40044e-06 2.20203e-06 8.82673e-07 -4.5478e-08 -3.73596e-09 5.73591e-09 -1.13089e-07 -7.71407e-08 4.42358e-07 0.0005 
2252 1 -0.00613538 -0.00797374 0.000499277 4.02231e-05 2.24768e-05 4.36155e-08 4.07728e-09 -1.90979e-08 -4.24426e-09 -6.04389e-08 -6.1231e-08 4.79054e-07 0.0005 
2042 1 -0.00233956 -0.00827555 0.00049978 1.33589e-05 -8.28634e-07 1.95518e-07 1.93584e-08 -1.77926e-09 -8.04593e-09 6.39388e-09 -8.3877e-08 4.42264e-07 0.0005 
1539 1 -0.010836 -0.00780083 0.000497681 -7.42435e-06 1.34856e-05 7.1482e-06 1.86917e-09 9.09985e-09 -4.06833e-09 5.217e-08 -1.22092e-07 6.94821e-07 0.0005 
986 1 -0.0081244 -0.00736769 0.000499662 3.80617e-06 2.78544e-06 -1.1006e-06 1.11514e-08 5.3759e-10 -1.95829e-09 -1.40655e-07 -4.16555e-08 4.00632e-07 0.0005 
1847 1 -0.00709709 -0.00770413 0.000498073 2.88157e-05 6.12006e-06 8.64853e-06 5.82744e-09 -2.22881e-08 -1.16749e-08 -9.86769e-08 -4.46847e-08 4.86865e-07 0.0005 
1447 1 -0.00561466 -0.00712003 0.00049947 1.36252e-05 3.6192e-05 2.57618e-06 1.14747e-08 -5.0042e-09 -8.48219e-09 -4.83152e-08 -2.46988e-08 4.68322e-07 0.0005 
1848 1 -0.00461808 -0.00724237 0.000497693 2.53542e-05 2.08397e-05 4.04984e-06 2.57265e-08 -3.51514e-08 -2.65719e-10 -3.85984e-08 -1.20645e-08 4.83476e-07 0.0005 
2417 1 -0.00359476 -0.00736404 0.000498985 6.79345e-06 -1.31415e-05 7.20632e-06 -2.19755e-09 -5.22883e-09 8.03841e-11 -3.42786e-08 -3.46171e-08 4.63913e-07 0.0005 
1462 1 -0.0025975 -0.00730938 0.000497633 1.42261e-05 -1.7264e-06 -9.41104e-08 -5.06315e-10 -1.17885e-08 -6.38087e-09 -2.14038e-08 -7.10865e-08 4.4244e-07 0.0005 
46 1 -0.00132219 -0.00784249 0.000499709 6.33522e-05 3.25726e-05 -1.1106e-05 3.57993e-08 -1.88153e-09 6.57812e-09 2.97796e-08 -1.81611e-07 4.85491e-07 0.0005 
1432 1 -0.000182755 -0.00787411 0.000498912 -3.23585e-06 1.25202e-05 -1.03978e-05 -4.13117e-08 -7.37056e-09 -1.22755e-08 2.61089e-08 -1.05313e-07 4.18704e-07 0.0005 
2195 1 -0.0116013 -0.00660543 0.00049802 1.25375e-05 3.93778e-06 9.43568e-07 1.91831e-08 1.02044e-08 4.31105e-09 1.40427e-07 -4.76219e-08 7.93319e-07 0.0005 
1429 1 -0.0105962 -0.00683001 0.000499782 2.49618e-05 2.10009e-06 -7.57173e-07 2.73985e-08 1.52572e-08 -6.00612e-10 6.16775e-08 -5.79601e-08 4.82516e-07 0.0005 
551 1 -0.00960105 -0.00692838 0.000497356 2.79166e-05 -2.01587e-06 9.2877e-06 2.58255e-08 7.84882e-09 -1.93422e-09 -3.72284e-08 -5.49226e-08 4.41349e-07 0.0005 
490 1 -0.0077871 -0.00635084 0.000498373 2.1688e-05 -5.57878e-06 3.97081e-06 -2.72081e-08 1.38646e-08 6.24586e-09 -1.49454e-07 -1.77226e-08 4.17862e-07 0.0005 
1485 1 -0.00646824 -0.00656519 0.000499234 1.59306e-05 2.92346e-05 3.43469e-06 -2.73003e-08 -1.04605e-08 1.7445e-09 -8.9534e-08 -1.14277e-08 4.58895e-07 0.0005 
74 1 -0.00405044 -0.00639779 0.000499564 3.01697e-05 4.17908e-05 -1.30171e-06 -1.42966e-08 -1.51491e-08 -1.30507e-08 -2.71102e-10 9.33613e-09 4.20867e-07 0.0005 
606 1 -0.0109844 -0.00581911 0.000499893 1.85621e-05 -1.09074e-06 9.30566e-07 1.95774e-08 -1.41398e-08 -6.83688e-09 1.14661e-07 -2.4365e-08 5.28897e-07 0.0005 
1293 1 -0.0100022 -0.00600421 0.000498486 1.5907e-05 -6.21932e-06 1.14537e-05 1.87967e-08 -2.21062e-08 -9.35905e-09 8.75819e-08 -1.32344e-08 4.5938e-07 0.0005 
1263 1 -0.00882452 -0.00629835 0.000499779 -0.000217206 0.000282922 -1.00746e-06 2.96723e-08 4.99631e-09 -1.76384e-09 -7.49486e-08 -4.43518e-08 4.10249e-07 0.0005 
1248 1 -0.00701825 -0.00571209 0.000499273 1.63145e-05 7.76721e-06 2.99262e-06 -4.59889e-09 9.64511e-09 -5.93249e-09 -1.28384e-07 -5.14998e-10 4.30311e-07 0.0005 
1101 1 -0.00560448 -0.00601391 0.000497553 2.25015e-05 2.9743e-05 4.08189e-06 -3.04956e-08 -3.2393e-08 -8.06093e-10 -4.93489e-08 9.08275e-10 4.57695e-07 0.0005 
817 1 -0.00467703 -0.00561872 0.000498652 1.42833e-05 5.2072e-05 3.92518e-06 -2.08953e-08 -2.67439e-08 -6.29023e-10 -8.44077e-09 2.72833e-08 4.21493e-07 0.0005 
1969 1 -0.00335371 -0.00559107 0.0004981 8.28155e-06 8.13298e-06 4.15422e-06 -8.45454e-09 -5.06269e-09 -2.03084e-08 -1.07475e-07 -2.11474e-08 4.07444e-07 0.0005 
266 1 -0.00225437 -0.00609223 0.00049745 2.03622e-05 2.37556e-05 1.0664e-05 1.06759e-09 -2.29685e-08 1.09863e-09 -1.38134e-07 -8.1352e-08 4.00456e-07 0.0005 
1477 1 -0.000920705 -0.00626834 0.00049776 5.96127e-06 4.29703e-05 8.58935e-06 2.26857e-08 2.73855e-08 -7.22756e-09 1.55945e-08 -1.18259e-07 4.84604e-07 0.0005 
740 1 -8.91906e-05 -0.0055899 0.000498907 3.77798e-06 4.37798e-05 6.11095e-06 7.36811e-08 -2.53527e-08 -5.08675e-09 1.04251e-07 -6.06969e-08 3.96153e-07 0.0005 
1091 1 -0.0121735 -0.00548388 0.000497681 3.76206e-06 1.86239e-06 1.46313e-06 7.24954e-09 -1.80024e-09 -3.13997e-09 1.09999e-07 -2.43717e-08 8.20397e-07 0.0005 
900 1 -0.0113659 -0.00489515 0.000499673 1.30972e-05 -3.31432e-06 1.70109e-06 2.31208e-08 -2.88912e-09 -4.01006e-09 7.449e-08 -2.63607e-08 4.42497e-07 0.0005 
1315 1 -0.0103098 -0.00483999 0.000497337 6.85318e-06 -3.27552e-06 9.68246e-06 -8.62584e-09 -9.15033e-09 7.54785e-11 6.79006e-08 -1.43919e-08 4.49917e-07 0.0005 
53 1 -0.00868117 -0.00528408 0.000496987 2.26534e-05 -3.70751e-06 3.00473e-06 -6.25971e-09 -2.2539e-09 4.45695e-09 -3.95129e-08 -6.08792e-08 4.22486e-07 0.0005 
1403 1 -0.0056473 -0.00495033 0.000499651 -2.47439e-06 4.42919e-06 5.03938e-06 -4.56778e-08 -2.1779e-08 -6.00993e-09 -5.33355e-08 2.52284e-08 4.29381e-07 0.0005 
2181 1 -0.00394929 -0.00478941 0.000498267 -5.90985e-06 8.61321e-06 2.44984e-06 -2.49658e-08 -2.98675e-10 -1.54777e-08 -1.09908e-07 1.05545e-09 4.05592e-07 0.0005 
152 1 -0.00257435 -0.00496706 0.000499709 1.37827e-06 1.27516e-05 -9.79948e-07 -1.19981e-08 -2.81565e-08 -2.9616e-08 -1.15915e-07 -1.18521e-08 4.62543e-07 0.0005 
262 1 -0.000968755 -0.00511461 0.000499365 1.09845e-05 2.75042e-05 5.13033e-06 3.33429e-08 -3.46066e-08 2.0379e-08 1.6909e-08 -9.31825e-09 4.85812e-07 0.0005 
890 1 -0.0125488 -0.00455798 0.000499028 2.79788e-06 1.65941e-06 1.45983e-06 8.36511e-09 -1.39534e-09 -5.15401e-09 4.62811e-08 -2.00417e-08 7.47815e-07 0.0005 
2 1 -0.0108924 -0.00401485 0.000499644 1.42959e-05 -2.40271e-06 1.7468e-07 9.46097e-09 5.47204e-09 -5.54331e-09 2.64128e-08 -3.24834e-08 4.12623e-07 0.0005 
12 1 -0.00939858 -0.00442981 0.000499424 1.2015e-05 -8.3571e-06 -1.86301e-06 -8.67106e-09 -3.70495e-09 9.99594e-09 -1.52143e-08 -3.98062e-08 4.32441e-07 0.0005 
1415 1 -0.00839845 -0.00432646 0.000498341 2.80466e-05 -2.09893e-07 4.25932e-06 -9.73092e-09 3.61367e-09 -1.38152e-09 -3.31721e-08 -5.10994e-08 4.25448e-07 0.0005 
93 1 -0.00728925 -0.00463186 0.000499323 3.23443e-05 -2.45466e-06 -6.35356e-07 -1.72939e-08 6.49457e-09 1.17243e-09 -4.91279e-08 -4.697e-08 4.35398e-07 0.0005 
2064 1 -0.00595724 -0.00400036 0.000496824 2.24589e-06 7.98388e-06 6.85976e-06 -1.18762e-08 -8.87854e-09 -2.19285e-09 -4.28021e-08 3.55076e-08 4.1927e-07 0.0005 
1452 1 -0.00495728 -0.00399863 0.000499038 -2.70838e-06 1.92367e-05 1.23897e-05 6.6527e-09 2.39585e-08 -1.27998e-08 -6.65901e-08 2.15612e-08 4.09865e-07 0.0005 
1459 1 -0.00316971 -0.00416485 0.000497727 -2.34935e-06 1.42907e-05 8.35931e-06 1.83664e-08 -2.79563e-08 1.2965e-08 -1.15959e-07 1.86358e-08 4.68932e-07 0.0005 
1507 1 -0.00173632 -0.0044238 0.00049991 2.04685e-05 -2.3093e-05 7.28562e-06 5.02306e-08 -1.06888e-07 2.84609e-08 -5.39284e-08 3.29424e-08 4.83909e-07 0.0005 
2217 1 -0.000780947 -0.00413279 0.000498275 9.28777e-06 5.15112e-06 3.87408e-06 1.63529e-08 -4.20797e-08 2.40864e-08 5.34413e-08 9.23018e-08 4.8578e-07 0.0005 
982 1 -0.0128874 -0.00348565 0.000497981 6.46992e-06 -2.01566e-06 4.50754e-06 2.23191e-08 -1.9657e-08 7.04209e-09 2.90953e-08 8.44965e-09 7.37113e-07 0.0005 
1544 1 -0.0100006 -0.00356235 0.00049978 9.57775e-05 -0.000182708 -1.78104e-06 8.11919e-09 2.83827e-09 -3.98209e-09 -1.72574e-08 -2.03058e-08 4.32506e-07 0.0005 
2007 1 -0.00898721 -0.00351902 0.000500372 1.26832e-05 -6.9002e-06 2.66276e-06 -4.90127e-09 -2.25639e-09 9.91337e-09 -6.52962e-08 -2.0423e-08 4.55463e-07 0.0005 
1617 1 -0.00781942 -0.00351045 0.000498389 2.71456e-05 4.06811e-05 3.11596e-06 -1.60557e-08 4.04085e-08 2.46598e-09 -2.31637e-08 -1.82795e-08 4.49481e-07 0.0005 
230 1 -0.00403925 -0.00359646 0.00049841 -6.86213e-06 1.23785e-05 6.12707e-06 4.91604e-08 -5.09961e-08 -9.59663e-09 -8.08986e-08 2.98194e-08 4.06669e-07 0.0005 
1067 1 -0.00238685 -0.00354301 0.000497902 -1.53253e-06 2.16359e-05 -1.79565e-06 -3.21592e-08 -2.69349e-08 -3.14526e-09 -9.28045e-08 5.38621e-08 4.43563e-07 0.0005 
9 1 -0.0130611 -0.00247882 0.000499407 1.97516e-06 2.04433e-06 -1.28519e-06 3.21996e-09 1.21832e-09 -1.55157e-08 4.55811e-08 4.42734e-08 7.44047e-07 0.0005 
2406 1 -0.0116632 -0.00306547 0.000497751 1.42751e-05 -4.40514e-06 3.32027e-06 1.53908e-09 -5.9858e-09 -8.53083e-09 3.55155e-08 6.67882e-09 4.3551e-07 0.0005 
178 1 -0.00953461 -0.00267758 0.000499781 -1.93275e-05 -0.000116618 -8.8385e-07 3.16422e-08 -1.50167e-08 7.08353e-09 -5.11708e-08 5.67337e-09 4.55205e-07 0.0005 
1238 1 -0.0085294 -0.00263105 0.000498567 -4.99032e-07 4.6362e-06 6.60386e-06 -2.1102e-08 1.41812e-09 -1.081e-08 -4.12099e-08 7.74443e-09 4.54351e-07 0.0005 
1610 1 -0.00705038 -0.00271623 0.00049978 0.000194214 0.000251454 1.46209e-08 -5.84012e-09 3.01415e-09 -1.94401e-11 -1.70451e-09 1.38405e-08 4.40332e-07 0.0005 
391 1 -0.00605717 -0.00288293 0.000499079 1.34734e-05 -6.05624e-06 6.34628e-06 5.73528e-09 -1.9713e-08 -1.33884e-09 2.30577e-08 1.43149e-08 3.98392e-07 0.0005 
1178 1 -0.00506436 -0.00300255 0.00049978 1.96834e-05 1.08485e-05 1.95586e-06 -5.51544e-09 -1.44964e-09 -3.52343e-09 -1.00395e-08 2.93453e-08 4.04971e-07 0.0005 
1798 1 -0.00415457 -0.00258741 0.000499724 -5.05744e-06 9.62047e-05 -1.24131e-06 -1.12566e-07 -6.77309e-08 2.63107e-08 -1.49567e-08 3.99945e-08 4.09008e-07 0.0005 
619 1 -0.00323123 -0.00300744 0.000499736 -1.4041e-05 3.80873e-05 2.08656e-06 -3.09392e-08 -3.29013e-08 5.27505e-08 -8.35562e-08 6.20019e-08 3.92989e-07 0.0005 
38 1 -0.00218302 -0.00251205 0.000499396 -0.000754084 -8.3467e-05 -3.15152e-06 -6.58333e-08 -4.67777e-08 -2.66293e-08 -8.60961e-08 7.44648e-08 3.87579e-07 0.0005 
736 1 -0.000791355 -0.00295618 0.000499678 1.81397e-05 -2.77085e-05 -4.02153e-06 2.06652e-07 -3.29035e-07 -7.2667e-09 -2.88575e-08 4.22399e-08 4.57422e-07 0.0005 
186 1 -0.0124292 -0.00170433 0.000498122 2.24405e-06 3.93833e-06 1.8951e-06 -9.10608e-09 6.52269e-09 2.40333e-09 7.40762e-08 7.0807e-08 4.951e-07 0.0005 
459 1 -0.0114537 -0.00208903 0.000499283 1.8019e-06 -1.07276e-06 5.76399e-06 1.55418e-08 -1.0778e-08 4.422e-09 7.32782e-08 5.81583e-08 4.46027e-07 0.0005 
866 1 -0.0104729 -0.0023319 0.000499292 2.85298e-05 4.95552e-07 -1.02015e-06 -2.31846e-09 3.34956e-09 6.14304e-09 2.04913e-08 2.1141e-08 4.18676e-07 0.0005 
1411 1 -0.00937863 -0.00168192 0.000498928 2.64899e-05 1.1653e-05 1.31881e-05 3.06359e-09 1.48146e-08 -1.55963e-08 5.64264e-09 1.93424e-08 3.88253e-07 0.0005 
1278 1 -0.00775225 -0.00200329 0.000499567 2.21732e-05 -1.3952e-05 2.18763e-06 -1.31284e-08 -6.62096e-09 1.94197e-08 -1.90558e-08 3.1937e-08 4.43396e-07 0.0005 
62 1 -0.00599369 -0.00187508 0.000499741 0.000585212 3.8425e-05 -2.71539e-06 7.7453e-08 -6.56912e-08 3.59188e-09 1.00209e-08 1.78713e-08 4.02826e-07 0.0005 
1669 1 -0.00496899 -0.00200711 0.00049978 -2.37051e-05 1.9168e-05 -1.07876e-07 6.73127e-09 2.37884e-08 2.0205e-09 -1.65201e-09 1.62961e-08 3.94919e-07 0.0005 
695 1 -0.00125584 -0.00197968 0.000498578 7.7384e-06 3.36996e-05 3.22799e-06 -2.94616e-08 4.79107e-08 -1.03247e-08 -6.67566e-08 3.05721e-08 4.44769e-07 0.0005 
1530 1 -0.013293 -0.00120288 0.000499496 -6.33909e-06 -6.88415e-06 4.48124e-07 -2.54463e-08 -6.04893e-09 -9.88314e-09 5.96368e-08 9.07109e-08 7.84373e-07 0.0005 
1654 1 -0.0107158 -0.00136286 0.000498827 1.46005e-05 3.701e-06 4.52483e-06 -5.78603e-10 1.72358e-09 3.82887e-09 6.7757e-08 8.14229e-08 4.53935e-07 0.0005 
299 1 -0.00770641 -0.000988584 0.000499781 3.63384e-05 3.25667e-05 -1.22338e-07 5.53368e-08 -2.99378e-08 7.61849e-10 -4.98117e-08 8.07248e-08 4.13285e-07 0.0005 
98 1 -0.00667979 -0.00106276 0.000498226 2.86195e-05 -9.68465e-06 4.61619e-06 4.9255e-08 -1.77388e-08 -1.29608e-09 -2.03834e-08 4.12133e-08 4.11264e-07 0.0005 
1060 1 -0.00391567 -0.00157351 0.00049809 6.03961e-06 -3.04033e-05 5.25014e-06 1.20029e-07 -6.94328e-10 -4.4753e-08 -4.43072e-08 -1.39352e-08 3.62672e-07 0.0005 
781 1 -0.00215694 -0.00128511 0.000499781 -0.000235825 0.000333353 3.27477e-09 -9.33803e-08 -3.78218e-08 1.91634e-11 -1.14324e-07 -2.32522e-08 3.70367e-07 0.0005 
1955 1 -0.000346751 -0.00148543 0.000499464 1.78356e-06 -2.78665e-05 -8.21429e-09 -1.20158e-07 -9.17653e-08 2.25955e-08 -1.65549e-08 3.20439e-08 3.9411e-07 0.0005 
1675 1 -0.0124415 -0.000619939 0.000499108 6.56643e-06 -2.79185e-06 2.50531e-06 -4.58068e-09 -1.13936e-08 -5.80241e-09 6.3133e-08 1.11541e-07 4.95016e-07 0.0005 
2125 1 -0.0115118 -0.000118761 0.000497468 -3.44678e-07 5.13527e-06 9.44943e-06 -1.62498e-08 8.90784e-09 -7.88922e-10 -8.97308e-09 1.2968e-07 4.91418e-07 0.0005 
2169 1 -0.00953582 -0.000695249 0.000499277 4.77495e-06 5.58703e-06 2.7095e-06 -1.31615e-08 8.72484e-09 -4.58891e-09 1.25205e-08 3.57322e-08 3.83227e-07 0.0005 
6577 1 -0.00859385 -0.000364016 0.000497581 1.19317e-05 -2.20989e-06 3.34044e-06 -4.53815e-09 -1.42434e-09 -1.11247e-09 -3.02082e-08 5.82146e-08 3.96838e-07 0.0005 
6638 1 -0.0068422 -7.77809e-05 0.000498568 3.72736e-05 -5.79161e-06 1.243e-05 3.19695e-08 -1.47625e-08 -6.27091e-09 -4.83952e-08 6.48426e-08 3.87615e-07 0.0005 
1600 1 -0.00577205 -0.000646286 0.000497803 3.50843e-05 -1.7565e-05 -2.14797e-06 3.08863e-08 -2.25821e-08 -1.79758e-08 -2.89043e-08 2.08356e-08 4.10954e-07 0.0005 
108 1 -0.00326505 -0.000749592 0.000497655 6.03203e-05 2.79369e-05 2.25079e-06 1.02935e-08 -2.65227e-08 1.37212e-08 -8.9345e-08 -4.11022e-08 3.62337e-07 0.0005 
288 1 -0.00178499 -0.000343727 0.000498997 7.66835e-05 7.64289e-05 -1.01988e-05 -3.1583e-08 1.13629e-08 8.19771e-09 -5.09984e-08 -1.34365e-08 3.76784e-07 0.0005 
1934 1 -0.000390544 -0.000486614 0.000499217 5.12495e-05 -5.42911e-05 1.35027e-05 5.44033e-08 -9.04875e-08 3.67696e-08 4.8538e-09 4.65237e-08 3.81811e-07 0.0005 
1180 1 -0.00374218 -0.0128168 0.000926117 -5.53997e-07 7.48345e-06 5.90721e-06 -2.76658e-09 -5.34213e-09 -2.11349e-09 -4.15783e-08 2.95666e-08 9.18516e-07 0.0005 
1047 1 -0.00271701 -0.0130746 0.000936577 9.78726e-07 5.09513e-06 8.59245e-06 -9.08982e-09 -2.33894e-09 1.24602e-09 -1.3862e-08 3.88767e-08 1.01996e-06 0.0005 
1971 1 -0.000135162 -0.0126753 0.00124818 1.33518e-05 2.90628e-05 1.35116e-05 -7.88761e-09 -5.22257e-09 1.35045e-08 1.35529e-08 -1.43202e-08 8.72549e-07 0.0005 
2053 1 -0.00467532 -0.0125048 0.000750393 -1.98219e-06 3.26482e-06 2.2469e-06 -2.23184e-09 -7.4157e-09 -8.07016e-09 -5.49859e-08 4.16894e-08 8.52035e-07 0.0005 
848 1 -0.00142135 -0.0124663 0.00125309 5.2133e-06 1.40205e-05 1.57052e-05 -6.19711e-09 3.02124e-09 5.39452e-09 2.20725e-08 6.47126e-08 1.21964e-06 0.0005 
427 1 -0.00477474 -0.0110329 0.00117944 1.26407e-05 4.59102e-05 -3.21642e-05 -1.50178e-08 4.65009e-08 -6.77937e-08 -2.9797e-08 2.3885e-08 9.73883e-07 0.0005 
2081 1 -0.00166527 -0.0106904 0.00082939 -2.77959e-06 1.29747e-05 1.14184e-05 -1.31064e-08 -1.44363e-09 2.30917e-08 -1.17858e-08 3.71668e-08 7.20356e-07 0.0005 
1375 1 -0.00811317 -0.00947672 0.000931075 1.43505e-06 -4.24877e-07 7.16705e-06 1.73235e-09 -5.07406e-09 4.28559e-09 -1.31853e-07 -1.1387e-07 8.01295e-07 0.0005 
1658 1 -0.00634306 -0.0100621 0.000540387 9.20646e-06 2.23127e-05 5.12385e-06 3.7786e-09 -6.18788e-09 2.78136e-10 -6.46541e-08 -3.86638e-08 4.97573e-07 0.0005 
110 1 -0.00455685 -0.0100612 0.00108917 1.89774e-05 4.61554e-05 1.26566e-05 8.5851e-09 1.28078e-08 -4.0176e-09 -3.20861e-08 -2.10462e-08 9.00961e-07 0.0005 
1487 1 -0.00223843 -0.00992679 0.0012475 5.14298e-06 7.1619e-06 2.29906e-05 1.552e-08 -2.45551e-09 -6.68836e-09 -2.50151e-08 -3.92238e-08 9.69141e-07 0.0005 
2090 1 -0.00143917 -0.00973394 0.000651274 -1.48187e-05 1.6363e-05 8.46517e-06 -1.46091e-08 -6.31374e-09 -2.09424e-09 -5.87655e-09 -3.61385e-08 4.96787e-07 0.0005 
2461 1 -0.00958867 -0.00929254 0.0011141 5.89838e-06 1.83911e-06 1.83409e-05 8.95927e-09 -1.57395e-08 1.08193e-08 -5.48002e-08 -1.11441e-07 9.93854e-07 0.0005 
1750 1 -0.00397582 -0.00925594 0.000985704 3.25207e-05 4.80271e-05 4.59491e-05 -1.31631e-09 7.95723e-09 1.81034e-08 -1.8399e-09 -8.31122e-08 8.60888e-07 0.0005 
243 1 -0.00695182 -0.0083893 0.00122319 7.94848e-06 4.35852e-06 3.99137e-06 1.79398e-09 -6.25012e-09 1.71027e-09 -7.83961e-08 -6.03105e-08 1.2028e-06 0.0005 
948 1 -0.00517999 -0.00801557 0.000788776 4.30355e-05 2.0334e-06 2.59008e-05 6.24672e-09 -1.65496e-08 3.21661e-09 -4.0148e-08 -5.55181e-08 7.31662e-07 0.0005 
793 1 -0.00403643 -0.00822824 0.000735868 4.27665e-05 -3.84788e-05 9.07153e-06 2.1241e-08 -2.44151e-08 1.13079e-08 -2.97575e-08 -5.25192e-08 6.09139e-07 0.0005 
1694 1 -0.00170479 -0.00853349 0.00122813 1.41487e-05 5.14565e-06 1.57753e-05 2.13324e-08 -5.35013e-09 1.20464e-08 -8.99596e-09 -1.03412e-07 9.64917e-07 0.0005 
842 1 -0.0100229 -0.00764359 0.00105181 1.19185e-06 1.12205e-05 1.73792e-05 5.03927e-09 1.51997e-08 -3.14143e-09 -3.79352e-08 -1.09337e-07 8.94687e-07 0.0005 
239 1 -0.00901208 -0.00741699 0.00113845 2.56817e-05 -5.2533e-06 1.68645e-05 2.44641e-08 -2.11444e-08 -1.35524e-08 -1.35007e-07 -6.43499e-08 9.69481e-07 0.0005 
13 1 -0.00305429 -0.00787081 0.0011845 3.26917e-05 2.1797e-05 2.88031e-05 -4.37074e-09 -9.63862e-09 -1.37125e-08 -1.45068e-08 -5.78276e-08 1.01295e-06 0.0005 
1059 1 -0.00717554 -0.00674335 0.00118206 2.66727e-05 7.24946e-06 6.62977e-06 -2.71558e-08 -1.98629e-08 -2.17582e-09 -1.44304e-07 -2.29909e-08 9.8453e-07 0.0005 
830 1 -0.00488325 -0.0064265 0.00104967 3.67686e-05 6.06791e-05 1.52651e-05 -2.23489e-08 -5.77135e-08 -1.77276e-08 -8.98641e-09 -8.24332e-09 8.69377e-07 0.0005 
515 1 -0.00310659 -0.00650784 0.000805928 2.56653e-05 8.03198e-06 -2.66141e-07 -2.98202e-09 -5.01112e-09 -5.14793e-09 -1.1097e-07 -5.416e-08 6.34405e-07 0.0005 
2336 1 -0.00168296 -0.00691143 0.000542616 1.55372e-05 1.96172e-05 1.40963e-05 2.25647e-08 -6.11443e-09 1.78737e-08 -3.16518e-08 -1.17756e-07 4.33631e-07 0.0005 
2421 1 -0.000538937 -0.00706767 0.000968701 1.19692e-05 8.36955e-06 5.02938e-06 -1.84033e-09 -3.19863e-08 4.70147e-08 3.63192e-08 -1.56789e-07 8.84156e-07 0.0005 
1645 1 -0.00625324 -0.00560174 0.00113221 2.56253e-05 3.08508e-05 1.21364e-05 -2.65672e-08 -2.1882e-08 -1.12453e-08 -6.16246e-08 -3.28285e-09 9.91462e-07 0.0005 
100 1 -0.00401327 -0.00569368 0.00124097 1.11808e-05 4.16861e-05 9.59906e-06 -5.29373e-09 -4.63542e-08 -1.29239e-08 -7.50078e-09 1.29182e-08 1.00019e-06 0.0005 
2208 1 -0.00152669 -0.00571705 0.0010685 1.66836e-05 4.23338e-05 1.36668e-05 1.79481e-08 -2.9785e-08 3.52711e-09 -5.30883e-08 -7.37368e-08 9.39786e-07 0.0005 
220 1 -0.00940729 -0.00551936 0.00113658 3.27263e-05 -6.47946e-06 1.31886e-05 -6.09709e-09 -1.54206e-08 8.44124e-10 3.28725e-08 -3.96415e-08 9.85522e-07 0.0005 
1211 1 -0.00785064 -0.00549424 0.00100763 2.20123e-05 -8.67038e-06 1.27246e-05 4.33865e-09 2.66973e-08 -2.34133e-08 -9.00966e-08 -4.37473e-08 8.15055e-07 0.0005 
565 1 -0.00328731 -0.00481814 0.00124586 6.27409e-06 3.31729e-05 -4.92365e-06 -1.56581e-08 1.08434e-08 -3.29234e-08 -1.01734e-07 -1.09138e-08 1.01475e-06 0.0005 
2300 1 -0.0118217 -0.00398031 0.000866643 1.58688e-05 -6.09299e-06 9.18181e-06 1.04241e-08 -3.82748e-09 -1.2863e-08 3.27219e-08 -1.60709e-08 7.91952e-07 0.0005 
1986 1 -0.00647185 -0.00462969 0.00107511 1.37772e-05 2.61388e-05 4.31264e-05 -1.83788e-08 -5.93578e-09 -2.42486e-08 -6.12195e-08 1.17692e-08 8.87176e-07 0.0005 
1236 1 -0.00459753 -0.00458672 0.00122947 4.76131e-06 1.39666e-05 1.17399e-05 -6.59855e-08 -3.40716e-08 -3.97285e-08 -1.00387e-07 -3.87268e-09 9.79981e-07 0.0005 
483 1 -0.0025029 -0.00419896 0.00124047 9.09927e-06 3.10889e-05 9.95426e-06 1.22026e-08 -3.23615e-08 3.59673e-08 -1.32952e-07 1.00384e-08 1.15255e-06 0.0005 
696 1 -0.00687589 -0.00370835 0.000761965 3.10512e-05 6.83691e-05 -2.75518e-06 -8.74788e-09 1.07209e-07 -3.63859e-09 -3.23204e-08 -8.95329e-09 6.20863e-07 0.0005 
704 1 -0.00147876 -0.00355093 0.000915429 5.09129e-06 1.43732e-06 -2.33382e-06 -5.73586e-08 -4.81462e-08 1.30605e-08 -2.67218e-08 4.95166e-08 7.77348e-07 0.0005 
2160 1 -7.58847e-05 -0.00356047 0.000912533 3.14839e-05 -9.8437e-06 9.76628e-06 -3.87544e-09 3.37626e-08 2.26452e-09 1.71315e-08 1.94417e-08 7.34986e-07 0.0005 
532 1 -0.0107949 -0.00314474 0.000982047 2.62231e-05 -4.44173e-06 -1.9563e-06 -3.30166e-09 -7.851e-09 -4.57714e-09 2.93878e-09 -2.47687e-08 8.19089e-07 0.0005 
1201 1 -0.00783838 -0.00280091 0.001201 3.20257e-05 6.0712e-05 -1.0593e-05 -2.17796e-08 8.53566e-08 -4.31605e-08 -1.33397e-08 9.7588e-09 1.08287e-06 0.0005 
2224 1 -0.00855744 -0.00180196 0.0010557 3.45544e-05 2.08761e-05 7.03772e-06 -5.58181e-08 -1.86238e-08 -4.71728e-09 -2.88844e-08 3.00096e-08 8.24783e-07 0.0005 
1596 1 -0.00697459 -0.00180665 0.00109451 2.02324e-05 -7.39247e-06 5.21221e-06 1.80497e-08 -1.40888e-08 -3.77518e-09 -2.90186e-08 3.59507e-08 8.46022e-07 0.0005 
2261 1 -0.0029822 -0.00176542 0.000798226 1.56141e-05 -0.000127983 -5.07481e-05 6.89607e-08 4.06842e-08 -1.03814e-07 -9.37548e-08 1.4372e-08 6.00475e-07 0.0005 
78 1 -0.0116486 -0.00115306 0.000788691 1.14507e-05 -1.45026e-06 7.20334e-06 -1.01376e-09 -1.35545e-08 1.20295e-08 9.75906e-08 1.06848e-07 7.31294e-07 0.0005 
367 1 -0.0100635 -0.00113969 0.00122265 2.04626e-05 -1.33454e-05 1.48423e-06 -9.24103e-11 2.16961e-08 3.78771e-09 6.08457e-08 5.27471e-08 9.97139e-07 0.0005 
5 1 -0.00506745 -0.0011458 0.000998231 6.78853e-05 -1.53237e-05 5.12371e-07 5.72263e-08 -6.68302e-08 -1.01687e-07 -2.28469e-08 -1.82181e-08 7.42722e-07 0.0005 
1357 1 -0.0011727 -0.00104959 0.000852812 3.53413e-05 4.13252e-05 -2.24127e-05 -3.24911e-08 5.26183e-08 4.28015e-08 -6.56814e-08 6.74463e-09 6.51009e-07 0.0005 
967 1 -0.0133497 -0.000207436 0.000558413 3.35289e-06 -3.7633e-06 4.89738e-06 4.97597e-09 3.40143e-09 -3.51268e-09 5.36932e-08 1.38335e-07 8.32098e-07 0.0005 
2095 1 -0.0104805 -0.000401905 0.000633585 7.73408e-06 1.04776e-05 -6.06218e-06 -2.25684e-08 -1.39867e-09 -1.41421e-08 1.35356e-08 9.5479e-08 5.35266e-07 0.0005 
42 1 -0.00418486 -0.000692799 0.000885207 8.30091e-05 1.79299e-06 1.67524e-05 3.92765e-08 -6.28934e-08 -4.40615e-08 -3.89338e-08 -6.15484e-08 6.15234e-07 0.0005 
548 1 -0.00252465 -0.000550563 0.00113765 7.97204e-05 4.46176e-05 -3.79728e-06 3.26945e-08 7.68664e-09 3.82405e-08 -9.67446e-08 -4.12195e-08 9.06192e-07 0.0005 
805 1 -0.00292443 -0.0130097 0.00190835 2.04025e-06 3.34586e-07 1.96616e-05 -1.61858e-08 -1.4403e-08 3.80977e-09 -4.5929e-08 1.54532e-08 1.5986e-06 0.0005 
643 1 -0.00199101 -0.0132029 0.00161145 -1.887e-06 5.19547e-06 7.14718e-06 -1.07793e-08 2.0495e-09 3.61513e-09 -4.0045e-09 3.90698e-08 1.47752e-06 0.0005 
1951 1 -0.000905517 -0.0133199 0.00131232 -1.39328e-06 4.7294e-06 1.32159e-05 -5.41129e-09 1.11785e-09 2.33059e-10 1.0879e-08 3.47955e-08 1.25567e-06 0.0005 
2416 1 -0.00017871 -0.0133488 0.00199812 -1.45254e-07 -2.13581e-06 9.55844e-06 -8.53357e-10 -7.09906e-09 -5.76277e-09 -5.13537e-08 7.56181e-09 1.5336e-06 0.0005 
2017 1 -0.00571041 -0.0119635 0.00127069 1.30687e-05 -1.21017e-05 -2.7477e-06 5.20298e-09 2.98882e-09 -1.16684e-08 -6.37263e-08 5.8037e-08 1.15881e-06 0.0005 
527 1 -0.00435001 -0.0126221 0.00169467 7.67746e-06 -3.30292e-06 1.80051e-05 -8.74975e-09 9.54457e-09 -1.45368e-08 -3.99264e-08 2.58215e-08 1.39417e-06 0.0005 
2327 1 -0.00336463 -0.0120805 0.00148525 -3.1597e-06 7.48389e-06 1.52594e-05 -1.3868e-08 -2.35033e-09 -7.68063e-09 -4.51182e-08 2.19029e-08 1.25633e-06 0.0005 
886 1 -0.00238595 -0.0122715 0.00142903 5.32022e-07 8.75947e-06 7.72335e-06 -1.40613e-08 -1.31558e-09 -3.23379e-09 -1.98558e-08 2.94354e-08 1.23522e-06 0.0005 
125 1 -0.000677056 -0.0119499 0.00166985 7.47202e-06 2.23929e-05 2.44617e-05 -1.0622e-08 -9.31272e-09 3.00962e-08 -3.2891e-08 4.79525e-08 1.39094e-06 0.0005 
2456 1 -0.00683013 -0.0114711 0.00139701 -7.26476e-06 3.8573e-06 1.79748e-05 -3.4243e-08 1.92188e-08 4.03751e-08 -7.44624e-08 5.89883e-08 1.22322e-06 0.0005 
461 1 -0.00542622 -0.0112559 0.00192921 1.79029e-05 8.14215e-06 9.74584e-06 -3.6937e-09 -7.00735e-10 3.93104e-08 -4.10154e-08 3.91824e-08 1.56356e-06 0.0005 
2263 1 -0.00451846 -0.0116723 0.00195509 2.09498e-05 4.45608e-06 2.05311e-05 -5.63604e-10 1.59121e-08 -4.50645e-09 -2.96959e-08 2.75387e-08 1.56517e-06 0.0005 
1851 1 -0.00379732 -0.0111976 0.00131039 2.52892e-06 1.59371e-05 1.42382e-05 -2.26397e-08 -3.35049e-09 5.61885e-09 -2.41154e-08 4.05764e-08 1.13368e-06 0.0005 
947 1 -0.00270568 -0.0113257 0.00135261 -2.88422e-06 1.52162e-05 1.26211e-05 -2.76778e-08 -3.01324e-08 7.00583e-09 -2.56438e-08 3.46078e-08 1.15365e-06 0.0005 