ITEM: TIMESTEP
30000
ITEM: NUMBER OF ATOMS
10000
ITEM: BOX BOUNDS mm mm mm
-0.015 0.015
-0.015 0.015
-0.001 0.0554
ITEM: ATOMS id type x y z vx vy vz fx fy fz f_dragforce[1] f_dragforce[2] f_dragforce[3] radius 
1359 1 -0.00148564 -0.0132643 0.000499793 -9.0013e-06 1.49613e-05 3.02506e-08 -4.53985e-09 4.50209e-09 8.49963e-12 -5.13959e-09 5.68731e-09 8.58626e-07 0.0005 
637 1 -0.00304788 -0.0122424 0.00049779 -2.77508e-06 -2.31921e-06 -2.71302e-06 2.23161e-09 -6.26134e-09 -2.96547e-09 -1.04815e-08 2.83057e-08 5.6939e-07 0.0005 
1496 1 -0.00207191 -0.0124542 0.000497707 -2.49865e-06 -4.30111e-06 -1.58603e-06 4.66035e-09 -6.34611e-10 -5.41195e-09 -8.79774e-09 1.79742e-08 6.12466e-07 0.0005 
502 1 -0.000773266 -0.0125203 0.000497527 -2.45007e-06 -1.99828e-06 -1.18948e-06 6.64581e-09 -2.14219e-08 2.48923e-09 -6.34687e-09 6.64894e-09 5.54522e-07 0.0005 
1195 1 -0.00705797 -0.011098 0.000498993 -5.57836e-06 5.32582e-06 -1.22689e-08 2.41978e-08 1.03362e-09 1.17725e-09 -1.09805e-07 2.51028e-08 7.07902e-07 0.0005 
1356 1 -0.00631283 -0.0117636 0.000499188 -6.30409e-06 3.08943e-06 2.54575e-06 -5.7892e-09 -1.65053e-08 3.31091e-09 -8.46381e-08 6.80362e-08 7.99796e-07 0.0005 
939 1 -0.0051502 -0.011662 0.000499451 -6.16199e-06 -7.23105e-06 -1.08664e-06 -5.72293e-09 -3.88158e-09 3.8258e-09 -4.94504e-08 5.55005e-08 5.9699e-07 0.0005 
1758 1 -0.00415021 -0.0116643 0.000499782 -3.07583e-06 -4.16025e-06 2.29803e-07 -2.29035e-08 -9.49128e-08 5.42158e-09 -2.36038e-08 3.81679e-08 5.21605e-07 0.0005 
656 1 -0.00321845 -0.01126 0.000498412 -7.43986e-06 -4.44854e-06 -2.63878e-06 -4.15232e-09 -1.44707e-08 -1.91128e-09 -2.29398e-08 4.289e-08 5.33974e-07 0.0005 
758 1 -0.00220815 -0.0114647 0.000498545 -6.61594e-06 -3.45524e-06 -2.17103e-06 -1.31477e-08 -7.77069e-09 -7.19994e-09 -2.3476e-08 2.71274e-08 5.3558e-07 0.0005 
319 1 -0.0011726 -0.0115357 0.000499744 -0.000472057 0.000271297 3.01411e-06 -5.70869e-08 3.50855e-08 1.05646e-09 -2.63534e-08 1.7923e-08 5.37865e-07 0.0005 
511 1 -1.60414e-05 -0.0111189 0.000496151 -1.26771e-05 -1.08064e-05 -4.35669e-06 1.02644e-09 -1.2473e-08 -8.46172e-09 -1.19764e-08 1.25993e-08 4.65975e-07 0.0005 
1144 1 -0.00800326 -0.0106571 0.000499308 -7.59367e-06 7.80153e-06 1.91823e-07 3.89621e-09 6.998e-09 8.73723e-09 -1.51813e-07 -3.0814e-08 6.73343e-07 0.0005 
353 1 -0.00578639 -0.0108912 0.000499407 -1.43145e-05 -1.76374e-05 2.94407e-06 -1.526e-08 -3.04229e-08 1.25676e-08 -6.39838e-08 2.2834e-08 5.48675e-07 0.0005 
1818 1 -0.00393618 -0.0105675 0.000497606 -1.14463e-05 -1.12108e-05 -1.75543e-06 -2.94057e-09 -3.42649e-08 3.09562e-10 -2.40305e-08 1.99669e-08 5.32195e-07 0.0005 
1873 1 -0.00258534 -0.0104888 0.000499347 -1.41821e-05 -2.46736e-07 2.3791e-06 -4.39714e-09 -6.63598e-09 -2.59378e-09 -2.21236e-08 9.36411e-09 5.29227e-07 0.0005 
2211 1 -0.000755957 -0.0104478 0.000498185 -1.50353e-05 -1.42374e-05 -4.8512e-06 1.27394e-08 2.23815e-08 3.83705e-09 -3.13588e-08 -4.09533e-09 5.09101e-07 0.0005 
647 1 -0.0088455 -0.0100003 0.000499142 -7.35411e-06 8.42013e-06 2.46509e-06 1.05731e-09 2.14987e-09 -1.31216e-08 -1.30066e-07 -7.85605e-08 6.60819e-07 0.0005 
542 1 -0.00732966 -0.00991816 0.00049876 -6.5852e-06 4.4638e-06 -2.61305e-07 2.14131e-08 -1.02092e-08 1.1939e-08 -1.27828e-07 -9.01105e-08 5.13709e-07 0.0005 
1585 1 -0.00535187 -0.00995045 0.000498051 -9.4411e-06 -1.60069e-05 -6.21047e-06 1.47242e-08 -2.17093e-08 2.04673e-09 -3.27809e-08 -3.18838e-08 5.44121e-07 0.0005 
2142 1 -0.00326008 -0.00975308 0.000498725 -1.17118e-05 -2.67482e-06 -2.8399e-06 2.23115e-08 1.28743e-08 1.24493e-09 -7.50679e-09 -4.54061e-08 5.13492e-07 0.0005 
2330 1 -0.00886761 -0.00899239 0.000496439 -5.31605e-06 1.52808e-06 -2.15141e-06 1.21961e-08 -6.00644e-09 -3.80984e-09 -1.24696e-07 -1.25898e-07 4.88452e-07 0.0005 
733 1 -0.00681184 -0.00906329 0.000498566 -3.43936e-06 7.92279e-06 -5.48106e-06 9.14342e-09 2.2537e-08 -6.57063e-09 -8.88107e-08 -9.48321e-08 5.4713e-07 0.0005 
1443 1 -0.00575851 -0.00889922 0.000498633 -1.68098e-06 3.70499e-06 -2.51229e-06 -4.66507e-09 -2.12448e-09 -4.95355e-09 -4.67889e-08 -1.06699e-07 5.3654e-07 0.0005 
1221 1 -0.00476006 -0.00887497 0.000498622 -8.34615e-06 -1.1391e-05 -3.59747e-06 5.15899e-09 9.9053e-09 -4.11277e-09 -1.94138e-08 -1.12901e-07 5.37998e-07 0.0005 
388 1 -0.00321743 -0.0087524 0.000499744 3.51491e-06 -8.92591e-06 -1.86749e-06 3.63469e-08 -2.18893e-08 3.30049e-08 -4.05902e-09 -7.52241e-08 5.13955e-07 0.0005 
823 1 -0.00236493 -0.00927499 0.000499776 -1.34458e-05 -1.8157e-06 -4.38394e-06 3.0386e-08 2.55535e-08 -1.33848e-08 -3.71764e-10 -7.09474e-08 5.03136e-07 0.0005 
714 1 -0.00108411 -0.00881292 0.000498182 -9.98271e-06 2.05821e-06 -7.75851e-06 2.07093e-08 2.40451e-08 3.04076e-09 -3.41978e-09 -9.57159e-08 4.80543e-07 0.0005 
462 1 -8.68011e-05 -0.00886823 0.000498146 -2.06174e-06 -4.33274e-06 -4.80979e-06 2.74279e-08 -4.25096e-09 1.33335e-09 -3.43948e-08 -4.75818e-08 4.49164e-07 0.0005 
529 1 -0.0102056 -0.00860736 0.000499937 -9.16003e-06 1.08647e-05 -2.43646e-06 1.02242e-09 -1.49727e-08 3.11352e-09 8.17845e-09 -1.7492e-07 7.13612e-07 0.0005 
359 1 -0.00933792 -0.00811199 0.000498181 -5.50487e-06 1.74928e-06 -3.26181e-06 -2.90135e-08 7.36262e-09 -2.47057e-09 -1.0481e-07 -1.053e-07 5.1911e-07 0.0005 
1505 1 -0.0080822 -0.00836664 0.000499675 7.51634e-06 9.91098e-06 2.30923e-06 -1.65231e-09 7.50335e-09 8.97753e-09 -1.22586e-07 -7.91172e-08 5.22712e-07 0.0005 
2252 1 -0.00613484 -0.00797352 0.000499311 1.58016e-06 5.26013e-07 -3.08795e-06 -1.11464e-08 -1.12443e-09 -5.4652e-09 -6.68171e-08 -6.07965e-08 5.67633e-07 0.0005 
2042 1 -0.00233856 -0.00827537 0.00049978 7.03402e-06 9.46134e-07 2.32346e-06 -7.40365e-10 1.24978e-08 2.30371e-09 -3.34084e-10 -8.42602e-08 5.28594e-07 0.0005 
1539 1 -0.0108361 -0.00780055 0.000497777 1.73863e-06 -2.23745e-06 -2.79554e-06 -2.43531e-08 -9.19384e-09 5.64174e-09 6.53448e-08 -1.47156e-07 8.24448e-07 0.0005 
986 1 -0.00812396 -0.00736766 0.000499684 2.38676e-05 8.84527e-06 -2.61094e-06 -9.17381e-09 3.7785e-08 -1.51145e-08 -1.543e-07 -5.01561e-08 4.6957e-07 0.0005 
1847 1 -0.0070967 -0.00770432 0.000498174 1.52123e-07 -2.05196e-06 -3.96079e-06 7.96598e-10 7.8624e-09 -9.34807e-09 -1.07775e-07 -4.58539e-08 5.77933e-07 0.0005 
1447 1 -0.00561462 -0.00711966 0.000499589 -1.59776e-06 2.97631e-06 2.30145e-06 4.51894e-09 -1.15382e-08 1.2485e-08 -5.33468e-08 -3.10351e-08 5.58214e-07 0.0005 
1848 1 -0.0046177 -0.00724209 0.0004978 6.37352e-06 -1.47219e-05 -2.00521e-06 -1.09394e-08 2.14211e-08 -4.54332e-10 -4.95839e-08 -6.24522e-09 5.74909e-07 0.0005 
2417 1 -0.00359469 -0.00736431 0.000499138 5.45538e-07 -1.14229e-05 -3.6721e-08 -1.39655e-08 -2.79003e-08 -1.21711e-08 -4.28845e-08 -2.77747e-08 5.53278e-07 0.0005 
1462 1 -0.00259726 -0.00730944 0.000497694 -2.28773e-06 4.15085e-06 1.59529e-06 -2.98318e-08 5.06209e-09 -2.40267e-09 -2.82228e-08 -6.79404e-08 5.29222e-07 0.0005 
46 1 -0.00132171 -0.00784217 0.000499659 -4.56854e-06 5.6444e-06 -7.74301e-06 5.05302e-08 2.11971e-08 -1.25351e-08 2.71444e-08 -1.87609e-07 5.88235e-07 0.0005 
1432 1 -0.000183101 -0.00787397 0.000498911 1.79201e-05 3.44032e-06 -9.2421e-07 4.80062e-08 2.2511e-10 7.35969e-09 1.95287e-08 -1.0156e-07 5.05968e-07 0.0005 
2195 1 -0.011601 -0.00660533 0.000498054 -8.36839e-07 -1.92594e-06 -2.19651e-06 -4.62823e-08 -7.30818e-09 -9.25267e-09 1.69013e-07 -5.93164e-08 9.43249e-07 0.0005 
1429 1 -0.0105956 -0.0068299 0.000499785 -6.30044e-07 9.37025e-06 1.26466e-06 -2.34596e-07 -1.65185e-09 -3.13948e-08 7.76738e-08 -7.08853e-08 5.73137e-07 0.0005 
551 1 -0.0096005 -0.00692864 0.000497549 -6.20852e-06 8.53241e-06 -3.7631e-06 -1.26256e-07 3.70064e-08 3.29903e-08 -3.51381e-08 -6.72744e-08 5.23728e-07 0.0005 
490 1 -0.00778676 -0.00635071 0.000498493 -6.81441e-06 1.56111e-05 -6.91515e-08 -1.65103e-08 1.39118e-08 -1.20861e-08 -1.6631e-07 -2.94615e-08 4.97003e-07 0.0005 
1485 1 -0.00646778 -0.00656469 0.000499328 -7.41705e-06 -5.8794e-06 -2.557e-06 -1.72814e-08 2.3736e-08 -9.09474e-09 -9.84709e-08 -3.10434e-08 5.50093e-07 0.0005 
74 1 -0.0040501 -0.00639702 0.000499613 -1.16507e-05 1.176e-06 -8.22914e-06 -1.17556e-08 -1.75877e-11 -4.35134e-09 1.25846e-08 2.08984e-08 5.02844e-07 0.0005 
606 1 -0.010984 -0.00581908 0.000499923 -2.62033e-06 1.31198e-06 -1.41977e-06 -1.56142e-08 -8.36137e-09 4.34061e-09 1.39198e-07 -3.26804e-08 6.29065e-07 0.0005 
1293 1 -0.0100019 -0.0060043 0.000498722 -4.76289e-07 2.23493e-06 -5.16997e-06 -1.45091e-08 5.98185e-09 3.90986e-09 1.09101e-07 -1.97679e-08 5.46529e-07 0.0005 
1263 1 -0.00883532 -0.00628485 0.000499782 -0.00017371 0.000251845 2.04758e-06 -5.34558e-08 -3.94169e-08 -1.08277e-08 -7.5249e-08 -5.79846e-08 4.86158e-07 0.0005 
1248 1 -0.00701792 -0.00571177 0.000499441 -1.06447e-05 2.01205e-05 -6.34087e-06 -2.45785e-08 9.24745e-09 -1.35539e-08 -1.41838e-07 -1.20504e-08 5.14007e-07 0.0005 
1101 1 -0.00560422 -0.00601346 0.000497687 -1.46359e-05 2.85831e-06 8.07663e-07 -2.06571e-08 -2.95341e-09 -7.41243e-09 -4.93891e-08 -1.13746e-08 5.48462e-07 0.0005 
817 1 -0.00467696 -0.00561785 0.000498747 -2.07527e-05 1.28511e-05 -9.07686e-07 -1.69447e-08 1.86262e-08 1.31235e-09 6.74593e-09 3.73896e-08 5.03517e-07 0.0005 
1969 1 -0.00335357 -0.00559102 0.00049826 -1.54171e-05 6.48173e-06 -3.09343e-06 -2.02122e-08 1.90547e-09 1.07706e-08 -1.10862e-07 -1.22059e-08 4.88445e-07 0.0005 
266 1 -0.00225401 -0.00609183 0.00049762 -1.65624e-05 1.49749e-05 2.81757e-06 -2.59992e-08 4.79034e-09 2.40974e-08 -1.51097e-07 -8.03049e-08 4.80992e-07 0.0005 
1477 1 -0.000920462 -0.00626776 0.000498005 -2.03622e-05 2.04214e-05 -3.86798e-06 -4.02381e-08 4.2737e-09 -1.00586e-08 8.47578e-09 -1.23175e-07 5.66835e-07 0.0005 
740 1 -8.89109e-05 -0.00558967 0.000499056 -2.04957e-05 4.23254e-08 2.51795e-07 5.40828e-09 -3.54703e-08 -1.40906e-08 1.05374e-07 -5.38324e-08 4.65786e-07 0.0005 
1091 1 -0.0121735 -0.00548386 0.000497741 -1.04694e-06 -4.31897e-07 -1.17261e-06 -4.43197e-09 3.61803e-09 -6.55843e-09 1.32289e-07 -3.3164e-08 9.77118e-07 0.0005 
900 1 -0.0113657 -0.00489519 0.000499686 -2.76691e-06 -1.25203e-06 -3.61146e-06 -5.53587e-09 9.44204e-10 -8.12864e-09 8.99813e-08 -3.624e-08 5.25909e-07 0.0005 
1315 1 -0.0103097 -0.00483997 0.000497535 1.90846e-06 -2.47361e-06 -2.5888e-06 -5.99891e-09 1.89938e-08 -2.69133e-09 8.591e-08 -2.24405e-08 5.34853e-07 0.0005 
53 1 -0.00868069 -0.00528402 0.000497038 -2.1643e-06 4.77218e-06 -5.44819e-06 -2.73667e-08 1.17842e-08 1.37252e-09 -3.44723e-08 -7.87076e-08 5.0674e-07 0.0005 
1403 1 -0.00564761 -0.0049506 0.000499678 -3.17007e-05 -6.65128e-06 -3.62637e-06 -4.08676e-08 -1.2396e-08 -1.49041e-08 -4.85289e-08 3.05485e-08 5.12415e-07 0.0005 
2181 1 -0.00394961 -0.0047896 0.000498399 -1.22909e-05 2.36409e-06 -7.89844e-06 -7.83283e-09 -5.01045e-09 -8.91288e-09 -1.14024e-07 1.15884e-08 4.85722e-07 0.0005 
152 1 -0.0025742 -0.00496702 0.000499689 -7.79723e-06 7.73437e-06 5.92778e-06 -1.51932e-08 6.70513e-09 7.78237e-09 -1.31246e-07 2.14752e-09 5.57853e-07 0.0005 
262 1 -0.000968285 -0.00511401 0.000499335 -1.50229e-05 1.18108e-05 -3.13996e-06 -3.10446e-08 -1.23783e-08 -1.49608e-09 1.40079e-08 3.4566e-09 5.86794e-07 0.0005 
890 1 -0.0125487 -0.00455792 0.000499091 -3.30593e-07 -3.92399e-07 4.09075e-07 6.22021e-09 -5.80736e-09 -3.18518e-09 5.5798e-08 -2.97895e-08 8.93294e-07 0.0005 
2 1 -0.0108922 -0.00401482 0.00049965 8.69136e-07 -6.86953e-06 -2.31996e-06 3.80858e-08 -2.12235e-08 -1.66724e-08 3.46134e-08 -4.53114e-08 4.87809e-07 0.0005 
12 1 -0.00939838 -0.00442992 0.000499413 -2.05973e-07 -2.59845e-06 -2.923e-06 9.70954e-10 -2.99137e-11 1.01976e-09 -6.6688e-09 -5.2727e-08 5.16943e-07 0.0005 
1415 1 -0.00839803 -0.00432626 0.000498444 -1.11892e-05 1.06658e-05 -3.31337e-06 6.59395e-09 -8.69076e-09 -9.87623e-11 -2.53795e-08 -6.34122e-08 5.08364e-07 0.0005 
93 1 -0.00728882 -0.00463188 0.000499406 -1.28861e-05 3.55308e-06 1.63068e-06 -6.22887e-09 -2.30608e-08 7.3372e-09 -4.52078e-08 -5.49338e-08 5.17472e-07 0.0005 
2064 1 -0.00595733 -0.0040004 0.000496986 -1.59365e-05 -3.87041e-06 -5.39597e-06 -3.24642e-08 -1.61646e-08 -1.15138e-08 -3.39158e-08 4.91447e-08 5.00075e-07 0.0005 
1452 1 -0.00495738 -0.00399865 0.000499181 -1.2691e-05 -4.72378e-07 -5.55157e-07 6.96165e-09 -6.40082e-08 -5.3067e-10 -6.02802e-08 3.208e-08 4.90438e-07 0.0005 
1459 1 -0.00316987 -0.00416503 0.000497879 -1.95038e-05 4.01179e-06 -1.27814e-06 -2.03312e-08 1.22928e-08 1.19137e-09 -1.27261e-07 3.68572e-08 5.65756e-07 0.0005 
1507 1 -0.00173626 -0.00442357 0.000499896 -1.5252e-05 2.0388e-05 -3.41645e-06 1.72987e-08 -3.53383e-08 1.70216e-09 -6.41594e-08 5.46704e-08 5.90761e-07 0.0005 
2217 1 -0.000781053 -0.00413191 0.000498391 -1.65196e-05 1.28314e-05 -4.37265e-06 3.51362e-08 -7.20498e-08 -1.72807e-09 5.7675e-08 1.21635e-07 6.00734e-07 0.0005 
982 1 -0.0128873 -0.00348562 0.000498091 -1.71749e-06 -2.08431e-07 -1.56657e-06 -3.41017e-08 4.78449e-08 2.96922e-09 3.52999e-08 2.55035e-10 8.8238e-07 0.0005 
1544 1 -0.00999454 -0.00357408 0.000499783 0.000145656 -0.000298649 -2.79631e-08 -1.58167e-08 -1.856e-08 5.1131e-10 -1.14564e-08 -3.0815e-08 5.12566e-07 0.0005 
2007 1 -0.00898712 -0.00351901 0.00050053 -2.14998e-05 6.98862e-06 3.11296e-06 4.01045e-08 -1.51158e-08 -8.97401e-09 -6.20916e-08 -2.7735e-08 5.40546e-07 0.0005 
1617 1 -0.00781905 -0.00350954 0.000498477 -1.29613e-05 -2.10406e-05 -9.34308e-07 -3.00179e-08 -2.3275e-08 -7.32893e-09 -1.20737e-08 -2.40656e-08 5.27279e-07 0.0005 
230 1 -0.00403952 -0.00359651 0.000498619 -1.95978e-05 6.43448e-06 -2.24309e-06 -5.09569e-09 -5.64234e-09 -1.8466e-08 -7.61355e-08 4.41403e-08 4.87522e-07 0.0005 
1067 1 -0.00238698 -0.00354312 0.000498035 -2.079e-05 -6.14114e-07 -4.50361e-06 4.04535e-08 3.12139e-09 -9.64074e-09 -1.02439e-07 7.99999e-08 5.36886e-07 0.0005 
9 1 -0.013061 -0.00247875 0.000499493 -3.7407e-06 1.58774e-06 -1.67759e-06 1.17858e-09 8.96074e-09 5.5672e-09 5.5269e-08 3.77902e-08 8.94248e-07 0.0005 
2406 1 -0.0116632 -0.00306532 0.000497868 7.79891e-06 -5.17685e-06 -6.11699e-06 2.79568e-08 -2.00877e-08 -7.38064e-09 4.43105e-08 -2.5042e-09 5.17542e-07 0.0005 
178 1 -0.00953637 -0.00268338 0.000499784 -1.25613e-05 5.59355e-06 2.39322e-06 2.50942e-08 -3.62705e-08 -2.30892e-09 -4.70286e-08 -2.29034e-10 5.40058e-07 0.0005 
1238 1 -0.00852981 -0.00263067 0.000498637 -4.58399e-06 2.19089e-06 2.65198e-06 2.32057e-09 -1.09878e-08 -2.49067e-09 -3.25348e-08 2.12601e-09 5.35329e-07 0.0005 
1610 1 -0.0070417 -0.00270689 0.000499781 1.43176e-06 -3.02013e-06 -3.30379e-06 2.26704e-08 -2.09589e-08 -1.04436e-09 1.53349e-08 1.32439e-08 5.16029e-07 0.0005 
391 1 -0.00605716 -0.00288299 0.000499174 -1.08509e-06 2.32285e-05 -5.34518e-08 -1.69718e-08 9.32655e-09 -9.88516e-09 4.39079e-08 1.93186e-08 4.73975e-07 0.0005 
1178 1 -0.00506428 -0.00300236 0.000499783 2.45757e-05 4.19536e-05 2.80129e-06 -3.19596e-08 -5.80038e-08 -6.15314e-09 1.06086e-08 3.89744e-08 4.84913e-07 0.0005 
1798 1 -0.00415468 -0.0025869 0.000499728 1.07904e-05 2.47493e-05 -4.4919e-06 -3.00502e-09 -1.43493e-08 1.2994e-08 1.08639e-08 5.1366e-08 4.91411e-07 0.0005 
619 1 -0.00323143 -0.00300761 0.000499747 5.79387e-06 8.30834e-06 -6.61949e-06 1.83992e-08 6.09182e-08 -2.48533e-08 -7.86055e-08 8.3423e-08 4.76503e-07 0.0005 
38 1 -0.00222982 -0.00251385 0.000499477 -0.00111162 5.2156e-06 -5.32415e-07 -3.20635e-08 -4.15151e-08 1.375e-08 -8.6932e-08 1.0275e-07 4.71212e-07 0.0005 
736 1 -0.000791532 -0.00295576 0.000499641 -2.2462e-05 1.5673e-05 -4.36434e-06 1.60619e-08 -6.70272e-08 -1.03155e-08 -3.83328e-08 7.59133e-08 5.7057e-07 0.0005 
186 1 -0.0124291 -0.00170423 0.000498235 3.05268e-06 -1.69782e-06 -2.02698e-06 -1.38374e-08 1.15518e-08 4.17959e-09 8.97496e-08 6.61438e-08 5.97239e-07 0.0005 
459 1 -0.0114536 -0.00208889 0.000499391 8.09164e-06 -4.02509e-06 -1.14247e-06 9.69224e-09 -1.78064e-08 7.88766e-09 9.08829e-08 5.49059e-08 5.30661e-07 0.0005 
866 1 -0.0104726 -0.00233203 0.000499271 -4.94318e-07 -7.23886e-06 -2.84203e-06 2.86555e-08 -2.85924e-09 1.04298e-08 3.13636e-08 1.39564e-08 4.96466e-07 0.0005 
1411 1 -0.00937849 -0.00168203 0.000499101 1.10991e-05 5.74488e-07 -2.13972e-07 -4.92717e-09 -1.10572e-10 -1.15711e-08 1.91228e-08 1.13058e-08 4.61014e-07 0.0005 
1278 1 -0.00775237 -0.00200338 0.000499699 1.2118e-05 -2.09067e-05 3.36377e-06 -3.2106e-08 3.12622e-08 -9.27543e-09 -4.52192e-09 2.79593e-08 5.20539e-07 0.0005 
62 1 -0.00596401 -0.00187187 0.000499736 0.000635004 8.36037e-05 -4.74019e-07 -3.1476e-09 9.41495e-09 -8.45971e-11 3.33907e-08 1.4981e-08 4.78934e-07 0.0005 
1669 1 -0.0049693 -0.00200689 0.000499779 1.49247e-05 2.00408e-05 -9.45588e-06 -3.30468e-08 -7.45772e-08 1.1189e-08 2.51796e-08 1.66496e-08 4.73121e-07 0.0005 
695 1 -0.00125508 -0.00197948 0.000498586 -2.10544e-05 -2.0074e-06 -8.28617e-06 -7.13964e-08 -2.17951e-08 3.08402e-09 -7.29608e-08 4.91348e-08 5.58978e-07 0.0005 
1530 1 -0.0132932 -0.00120302 0.000499494 5.94363e-06 3.33876e-06 1.42783e-06 -6.70238e-09 5.56051e-09 -4.93798e-10 7.22019e-08 8.88446e-08 9.42356e-07 0.0005 
1654 1 -0.0107157 -0.00136297 0.000498929 1.39985e-06 -1.0756e-05 2.99872e-06 2.24568e-09 -6.94791e-09 4.92842e-09 8.82129e-08 8.1666e-08 5.40881e-07 0.0005 
299 1 -0.00770471 -0.000986474 0.000499784 5.20334e-05 5.10019e-05 4.04875e-07 -3.98944e-08 4.76418e-09 1.37033e-09 -3.8271e-08 7.84959e-08 4.90859e-07 0.0005 
98 1 -0.00667978 -0.00106289 0.000498325 1.38695e-06 -4.20625e-06 -4.43263e-07 -3.38528e-08 1.53903e-08 -2.05131e-10 -1.27767e-09 3.53504e-08 4.88606e-07 0.0005 
1060 1 -0.00391549 -0.00157338 0.000498269 -5.98026e-06 -2.54218e-05 -6.49078e-06 -8.38514e-08 -6.4074e-08 -3.61973e-09 -2.54881e-08 -2.26377e-08 4.35018e-07 0.0005 
781 1 -0.00216698 -0.00126779 0.000499787 1.52193e-06 -5.37549e-05 -1.72127e-05 -3.63276e-08 -1.47104e-07 -4.46465e-08 -1.16518e-07 -3.6036e-08 4.57619e-07 0.0005 
1955 1 -0.000345736 -0.0014851 0.000499549 -2.95843e-05 -1.22262e-05 -2.70183e-06 -1.67129e-08 1.16988e-08 -2.65463e-08 -1.90977e-08 4.31261e-08 5.12322e-07 0.0005 
1675 1 -0.0124416 -0.000620154 0.000499167 6.18761e-06 3.52708e-07 -3.46149e-06 2.43823e-08 5.09546e-09 4.91319e-09 7.90736e-08 1.12905e-07 5.97168e-07 0.0005 
2125 1 -0.0115118 -0.000118619 0.000497649 -5.39043e-06 -7.13308e-06 -2.09067e-06 -2.31198e-08 -2.9197e-08 4.28418e-09 -5.92592e-10 1.36838e-07 5.77815e-07 0.0005 
2169 1 -0.0095358 -0.000695296 0.000499474 -1.00069e-05 6.24407e-06 -4.98559e-06 -1.11704e-08 -1.26448e-08 -1.05662e-08 2.70995e-08 2.7967e-08 4.5513e-07 0.0005 
6577 1 -0.00859372 -0.000364147 0.000497726 -8.99765e-06 -4.82772e-06 -4.57295e-07 -2.48583e-08 1.39013e-08 4.02763e-10 -1.89963e-08 5.33344e-08 4.71232e-07 0.0005 
6638 1 -0.006842 -7.78154e-05 0.000498683 -8.20831e-06 -1.37562e-06 -4.39412e-06 -3.97042e-08 6.02316e-09 -1.47658e-08 -3.48137e-08 5.95335e-08 4.60324e-07 0.0005 
1600 1 -0.00577193 -0.000646547 0.000497956 -4.88263e-06 7.16007e-07 7.16006e-07 -2.50021e-08 3.38442e-10 3.24531e-09 -7.496e-09 8.22392e-09 4.88381e-07 0.0005 
108 1 -0.00326484 -0.000749576 0.000497802 -2.89343e-06 -1.3034e-05 -8.20245e-07 -3.63961e-08 1.41319e-09 -1.82458e-08 -7.96236e-08 -6.57615e-08 4.44643e-07 0.0005 
288 1 -0.0017847 -0.0003438 0.000499109 -1.38055e-05 -2.7359e-06 3.9564e-06 -4.03725e-08 -6.91671e-09 6.69776e-09 -4.27211e-08 -3.84973e-08 4.77072e-07 0.0005 
1934 1 -0.000390084 -0.000486347 0.000499303 -2.99731e-05 -7.38419e-06 -4.43732e-06 -1.77448e-08 4.60181e-09 -1.5627e-08 9.05983e-09 3.84134e-08 5.02774e-07 0.0005 
1180 1 -0.0037422 -0.0128168 0.00092624 -4.04572e-06 -5.32383e-07 -5.98279e-06 4.76873e-09 -4.94726e-09 -8.69788e-10 -9.39649e-09 2.05559e-08 1.07598e-06 0.0005 
1047 1 -0.00271701 -0.0130745 0.000936765 -3.2462e-06 -2.95925e-06 -3.68866e-06 4.18018e-09 1.67343e-09 9.29209e-10 -1.15554e-08 1.57601e-08 1.15584e-06 0.0005 
1971 1 -0.00013508 -0.012675 0.00124866 -1.00056e-05 -2.8256e-06 7.21266e-06 1.31274e-08 -2.05799e-08 2.39495e-09 -3.78026e-08 -1.28983e-08 1.09662e-06 0.0005 
2053 1 -0.00467537 -0.0125048 0.000750446 -1.79982e-06 -3.28689e-06 -6.74304e-06 -2.37107e-10 1.17225e-09 9.7118e-09 -3.22629e-08 4.15838e-08 1.0044e-06 0.0005 
848 1 -0.0014213 -0.012466 0.0012534 -1.90669e-06 -6.21032e-07 -4.3411e-06 9.30404e-10 -9.38573e-09 -3.54638e-09 -1.36641e-08 6.63613e-09 1.34297e-06 0.0005 
427 1 -0.0047746 -0.0110324 0.00117907 -1.81774e-05 -8.93014e-06 1.114e-06 -1.87507e-08 -1.70268e-08 1.09665e-08 -3.22359e-08 3.10772e-08 1.15198e-06 0.0005 
2081 1 -0.00166533 -0.0106902 0.000829744 -1.464e-05 -5.37182e-06 -1.14468e-05 1.06957e-08 2.83307e-08 -4.94983e-09 -3.44779e-08 -7.2933e-10 8.48681e-07 0.0005 
1375 1 -0.00811309 -0.00947684 0.000931264 -4.87118e-06 9.6803e-06 -1.90595e-06 7.00776e-09 -1.75866e-08 1.25388e-08 -1.49693e-07 -1.31119e-07 9.47994e-07 0.0005 
1658 1 -0.00634288 -0.0100619 0.000540456 -8.73354e-06 -1.13131e-05 -6.11096e-07 1.54481e-08 -1.42948e-08 3.82316e-09 -7.2204e-08 -3.98793e-08 5.90633e-07 0.0005 
110 1 -0.00455672 -0.0100607 0.0010895 -1.54253e-05 -1.1142e-05 -8.52714e-06 2.15882e-08 -1.80996e-08 -8.43466e-09 -3.88315e-08 -1.86292e-08 1.06677e-06 0.0005 
1487 1 -0.00223851 -0.00992639 0.00124783 -8.52216e-06 1.40596e-05 -1.562e-05 -6.14543e-09 2.48315e-08 -3.64175e-08 -3.92831e-08 -4.17606e-08 1.15047e-06 0.0005 
2090 1 -0.00143926 -0.00973388 0.000650815 -2.11436e-06 -8.23113e-06 -3.40249e-05 -1.04813e-08 4.26121e-08 4.03262e-08 -2.02904e-08 -4.68217e-08 5.9214e-07 0.0005 
2461 1 -0.00958849 -0.00929254 0.00111457 -7.00976e-06 2.00222e-06 -1.22839e-05 2.87919e-09 -1.36014e-08 -2.85329e-08 -6.12593e-08 -1.33459e-07 1.17774e-06 0.0005 
1750 1 -0.0039755 -0.00925535 0.000986414 -1.92896e-05 -1.09718e-05 -9.5645e-06 6.08592e-09 -8.57902e-09 5.05405e-09 -5.71617e-09 -9.06627e-08 1.02669e-06 0.0005 
243 1 -0.00695164 -0.00838957 0.00122337 3.22569e-06 7.38001e-06 -5.72672e-06 -8.32081e-09 2.83648e-08 -2.52905e-08 -8.47592e-08 -4.66538e-08 1.5727e-06 0.0005 
948 1 -0.00517943 -0.00801558 0.000789254 -9.86692e-07 -8.18898e-06 -2.13838e-06 -1.71986e-08 1.27794e-08 1.08909e-08 -5.11248e-08 -5.5045e-08 8.71307e-07 0.0005 
793 1 -0.00403587 -0.00822886 0.00073586 3.65276e-06 -2.14843e-05 6.94611e-06 3.0417e-08 -3.51989e-08 -1.09028e-08 -4.12992e-08 -5.03883e-08 7.21985e-07 0.0005 
1694 1 -0.00170434 -0.00853293 0.00122874 2.31942e-05 3.36975e-05 1.73976e-06 2.71321e-08 6.80235e-08 4.05247e-09 -1.74755e-08 -1.02311e-07 1.15883e-06 0.0005 
842 1 -0.0100229 -0.00764355 0.00105223 -2.34507e-06 5.24888e-06 -6.2944e-06 -4.58181e-08 1.09868e-08 -1.24564e-08 -3.90944e-08 -1.30993e-07 1.06089e-06 0.0005 
239 1 -0.00901161 -0.00741721 0.00113899 -6.72777e-06 -6.96782e-07 -7.12343e-06 -6.15143e-08 2.88984e-08 7.65872e-09 -1.48055e-07 -7.76006e-08 1.14676e-06 0.0005 
13 1 -0.0030536 -0.00787069 0.0011851 -2.70572e-05 -2.51021e-06 -2.02548e-05 -5.05932e-08 1.20614e-08 -1.85152e-08 -2.29895e-08 -5.39488e-08 1.20909e-06 0.0005 
1059 1 -0.00717503 -0.00674331 0.00118224 -1.04583e-05 2.48097e-06 -5.31187e-06 -2.67301e-08 2.76432e-08 -2.54001e-08 -1.60707e-07 -3.94217e-08 1.17246e-06 0.0005 
830 1 -0.0048828 -0.00642564 0.00105008 -9.98552e-06 -3.86633e-06 -8.69873e-06 -1.07918e-08 3.96912e-08 7.70265e-09 6.45532e-10 -7.78831e-09 1.03643e-06 0.0005 
515 1 -0.00310628 -0.00650781 0.000806045 -1.79019e-05 6.30292e-06 -4.00982e-06 -2.29134e-08 -1.23318e-09 -1.69878e-08 -1.19276e-07 -5.01354e-08 7.59629e-07 0.0005 
2336 1 -0.00168272 -0.00691113 0.000542924 -8.62743e-06 9.59319e-06 -1.37332e-06 -1.5636e-08 -1.1619e-08 -1.70975e-09 -4.00991e-08 -1.17931e-07 5.21988e-07 0.0005 
2421 1 -0.000539353 -0.00706754 0.00096881 -2.55966e-05 -5.53186e-06 -2.6253e-06 2.43303e-08 1.70204e-08 1.51282e-08 3.06667e-08 -1.60314e-07 1.05963e-06 0.0005 
1645 1 -0.0062529 -0.00560119 0.00113259 -2.04582e-05 8.04395e-06 -2.96829e-06 -3.3892e-08 -1.17799e-08 -1.79503e-08 -6.19192e-08 -2.03999e-08 1.1862e-06 0.0005 
100 1 -0.00401329 -0.0056932 0.00124118 -2.27838e-05 8.86214e-06 -4.96452e-06 -2.52455e-08 3.31731e-08 2.29594e-08 9.41331e-09 2.70568e-08 1.19592e-06 0.0005 
2208 1 -0.00152643 -0.00571619 0.0010687 -1.44468e-05 6.57289e-06 1.69092e-07 -1.24551e-08 -2.57988e-09 4.13165e-09 -6.34929e-08 -6.87347e-08 1.11572e-06 0.0005 
220 1 -0.00940661 -0.00551946 0.00113699 6.93725e-07 -2.68443e-06 -1.11812e-05 -3.60653e-08 2.76683e-08 1.10386e-08 4.76121e-08 -5.21366e-08 1.17625e-06 0.0005 
1211 1 -0.00785024 -0.00549415 0.00100807 -7.32437e-06 1.72265e-05 -8.63826e-07 -1.9637e-08 1.23237e-08 -3.71544e-08 -9.30559e-08 -5.61486e-08 9.69465e-07 0.0005 
565 1 -0.00328769 -0.00481803 0.00124617 -3.09494e-05 1.56022e-06 4.65707e-07 -1.67606e-08 3.21735e-08 -3.46402e-08 -1.08116e-07 4.1021e-09 1.21843e-06 0.0005 
2300 1 -0.0118215 -0.00398028 0.000866889 2.00598e-06 -2.16735e-07 -4.13243e-06 1.39945e-08 -8.42971e-09 -5.72972e-09 4.0028e-08 -2.60065e-08 9.4483e-07 0.0005 
1986 1 -0.00647186 -0.00462918 0.00107608 -1.95072e-05 1.05015e-05 4.13458e-06 -5.75954e-08 -1.48746e-09 -1.96786e-08 -5.71073e-08 1.59624e-08 1.05811e-06 0.0005 
1236 1 -0.0045978 -0.00458704 0.0012298 -1.76167e-05 -3.68429e-06 -6.12457e-06 -1.44312e-08 -1.45042e-08 -4.98397e-09 -1.00654e-07 1.66664e-09 1.17185e-06 0.0005 
483 1 -0.00250327 -0.00419871 0.00124111 -7.5687e-06 3.30036e-08 -6.45638e-06 -2.66713e-08 3.09177e-08 -1.69031e-08 -1.55912e-07 3.41895e-08 1.39612e-06 0.0005 
696 1 -0.00687547 -0.00370686 0.0007618 -1.94813e-05 -5.57072e-05 -1.67003e-06 -2.65988e-08 -1.63514e-08 -2.89239e-08 -2.17566e-08 -8.67028e-09 7.36928e-07 0.0005 
704 1 -0.00147896 -0.00355019 0.000915805 -2.44136e-05 1.26458e-05 -7.90374e-06 3.38244e-08 -8.40498e-08 -5.8883e-09 -2.73243e-08 8.31152e-08 9.5969e-07 0.0005 
2160 1 -7.57636e-05 -0.00355987 0.000912862 -2.56015e-05 4.98765e-06 -9.10357e-06 2.46116e-08 -3.41756e-08 -2.05102e-08 4.92648e-09 5.47666e-08 9.05134e-07 0.0005 
532 1 -0.0107948 -0.00314478 0.000982271 -1.41944e-06 -1.18638e-05 -5.64816e-06 4.63626e-09 -2.38175e-08 1.16998e-09 7.3684e-09 -3.81927e-08 9.69044e-07 0.0005 
1201 1 -0.00783746 -0.00279884 0.00120016 4.95265e-05 1.46489e-05 -3.57842e-05 -7.6155e-08 -1.18779e-07 7.81107e-08 7.59816e-10 5.42005e-09 1.26737e-06 0.0005 
2224 1 -0.00855736 -0.00180162 0.00105635 1.18767e-05 1.15429e-05 3.05937e-06 -3.99018e-08 -1.21694e-08 -2.79621e-08 -1.87001e-08 2.46763e-08 9.77905e-07 0.0005 
1596 1 -0.00697465 -0.00180685 0.00109471 -5.48238e-07 1.72377e-06 8.86009e-06 -4.60928e-08 1.05841e-08 -6.47634e-09 -1.14686e-08 3.46691e-08 1.00178e-06 0.0005 
2261 1 -0.00298189 -0.00176411 0.000798925 -1.69773e-05 -4.73319e-05 1.23048e-05 -1.10999e-07 -1.26447e-07 2.81032e-08 -8.39011e-08 1.45524e-08 7.33454e-07 0.0005 
78 1 -0.0116485 -0.00115301 0.000788932 -4.27286e-07 -5.76072e-06 -2.40322e-06 8.2943e-09 -1.69467e-08 -4.28478e-10 1.2057e-07 1.09255e-07 8.73847e-07 0.0005 
367 1 -0.0100632 -0.00114024 0.00122274 4.64751e-06 -1.69263e-06 -4.06399e-07 2.45204e-08 3.9867e-09 -1.23605e-08 8.09968e-08 4.74168e-08 1.18512e-06 0.0005 
5 1 -0.00506708 -0.00114576 0.000998642 3.59091e-07 -1.19244e-05 -2.27356e-05 -7.07007e-08 -2.47028e-08 3.76576e-08 1.35005e-09 -3.31443e-08 8.86507e-07 0.0005 
1357 1 -0.00117185 -0.00104936 0.00085275 -3.08796e-05 -1.25364e-05 1.78927e-06 -6.0286e-09 1.3267e-08 2.39902e-08 -6.44742e-08 3.29302e-09 8.54189e-07 0.0005 
967 1 -0.0133497 -0.000207518 0.00055846 1.82414e-06 2.7487e-06 9.70459e-07 3.22963e-09 -1.72336e-09 1.37251e-08 6.69525e-08 1.45533e-07 9.84504e-07 0.0005 
2095 1 -0.0104806 -0.000401902 0.000633502 -1.77725e-05 -5.6191e-06 -1.364e-06 -5.87446e-09 -1.72277e-09 7.51759e-09 2.70363e-08 9.6748e-08 6.35816e-07 0.0005 
42 1 -0.00418456 -0.000692557 0.000885605 1.7945e-06 -1.93577e-05 -9.42392e-06 -6.60071e-08 -4.60152e-08 -2.07152e-08 -1.85823e-08 -8.92253e-08 7.37255e-07 0.0005 
548 1 -0.00252433 -0.000550636 0.00113789 -1.36379e-05 -2.03645e-05 -4.5033e-06 -6.63693e-08 1.59716e-08 -6.41996e-09 -8.89206e-08 -7.42412e-08 1.11713e-06 0.0005 
805 1 -0.00292441 -0.0130098 0.00190879 -7.30642e-06 -7.23857e-06 -7.82314e-06 1.26208e-08 -1.92009e-09 1.02963e-08 -4.01143e-08 1.20501e-08 1.84813e-06 0.0005 
643 1 -0.00199102 -0.0132028 0.00161161 -3.13355e-06 8.694e-07 1.87695e-06 -1.8757e-10 -2.81991e-09 -7.43097e-09 -2.66187e-08 6.43284e-09 1.65487e-06 0.0005 
1951 1 -0.000905545 -0.0133198 0.00131252 1.4867e-06 3.41483e-07 -1.90809e-06 -8.90731e-09 -6.00816e-09 -3.04633e-08 -2.25081e-08 3.0015e-09 1.39181e-06 0.0005 
2416 1 -0.000178777 -0.0133488 0.00199839 2.39372e-07 4.91842e-06 4.60036e-06 -8.77259e-09 -8.11798e-09 -4.55491e-08 -7.29036e-08 -1.22225e-09 1.80716e-06 0.0005 
2017 1 -0.00571026 -0.0119635 0.00127075 -1.17739e-05 5.0827e-06 4.38853e-06 -5.81638e-09 1.00371e-08 3.03641e-08 -6.67288e-08 6.72539e-08 1.37037e-06 0.0005 
527 1 -0.00434991 -0.0126221 0.001695 -7.52837e-06 5.98088e-07 -6.10863e-06 3.56283e-08 -7.417e-09 2.64006e-08 -2.33223e-08 2.5228e-08 1.6406e-06 0.0005 
2327 1 -0.0033647 -0.0120805 0.00148553 -8.65418e-06 9.87422e-07 -8.03277e-06 1.11993e-08 -1.06419e-08 -3.63404e-09 -2.50665e-08 2.12002e-08 1.47344e-06 0.0005 
886 1 -0.00238597 -0.0122713 0.00142917 -7.9692e-06 -9.25173e-07 -8.91363e-06 1.2967e-08 1.72221e-08 -1.37472e-08 -2.977e-08 7.25351e-09 1.41187e-06 0.0005 
125 1 -0.000677039 -0.0119496 0.00167054 -5.30504e-06 3.03122e-06 -2.36347e-07 -2.50147e-09 -1.32428e-08 -2.27615e-08 -5.90977e-08 6.61923e-09 1.61308e-06 0.0005 
2456 1 -0.00683036 -0.0114709 0.0013974 -1.29405e-05 2.09936e-06 6.05946e-06 7.39912e-08 -2.17367e-08 -4.44495e-08 -8.46085e-08 6.92914e-08 1.44845e-06 0.0005 
461 1 -0.0054259 -0.0112558 0.00193011 -3.11703e-05 -8.24811e-07 3.39474e-05 4.36878e-08 -5.08267e-08 3.16519e-09 -4.82441e-08 5.11333e-08 1.84997e-06 0.0005 
2263 1 -0.00451816 -0.0116725 0.00195626 -3.3988e-05 -7.91165e-06 6.23184e-06 5.32941e-08 -2.65649e-09 3.10965e-09 -2.24108e-08 3.42124e-08 1.84903e-06 0.0005 
1851 1 -0.00379734 -0.0111974 0.00131066 -1.70996e-05 -4.37309e-06 -2.98883e-06 -1.56664e-08 -2.61335e-08 -8.95057e-09 -2.22798e-08 4.62647e-08 1.33943e-06 0.0005 
947 1 -0.00270578 -0.0113257 0.00135291 -9.34495e-06 -6.86855e-06 -9.59358e-06 2.5288e-08 2.15893e-08 -4.51337e-09 -3.78054e-08 2.61383e-08 1.35451e-06 0.0005 