ITEM: TIMESTEP
70000
ITEM: NUMBER OF ATOMS
10000
ITEM: BOX BOUNDS mm mm mm
-0.015 0.015
-0.015 0.015
-0.001 0.0554
ITEM: ATOMS id type x y z vx vy vz fx fy fz f_dragforce[1] f_dragforce[2] f_dragforce[3] radius 
1359 1 -0.00149359 -0.0132662 0.000499709 2.05669e-05 5.86756e-06 -7.59679e-07 -1.51164e-08 -2.09253e-08 -1.30023e-08 2.53148e-07 1.23273e-07 1.71784e-06 0.0005 
637 1 -0.00304659 -0.0122388 0.000499378 -4.83892e-06 -1.11746e-05 -3.15945e-06 3.90513e-08 -2.2391e-08 6.09778e-09 8.44567e-08 1.35319e-07 1.13058e-06 0.0005 
1496 1 -0.00206905 -0.0124485 0.000499689 -1.18925e-05 -1.23181e-05 -6.11396e-06 3.61156e-09 -1.13978e-08 3.62755e-09 2.19004e-07 1.66493e-07 1.21474e-06 0.0005 
502 1 -0.000770221 -0.0125204 0.000499468 -6.63604e-05 -3.92617e-07 2.88472e-06 9.24025e-08 4.96535e-08 -6.10046e-08 2.52233e-07 1.04039e-07 1.104e-06 0.0005 
1195 1 -0.00706565 -0.0111049 0.00049959 -2.79243e-05 1.70504e-05 1.88906e-07 4.36286e-08 -7.89725e-08 3.21482e-08 -2.523e-07 -2.79186e-08 1.4737e-06 0.0005 
1356 1 -0.00631303 -0.0117632 0.000499717 -3.18272e-05 -7.24273e-06 2.05349e-05 1.05859e-07 -6.3032e-08 -1.09517e-08 -2.06e-07 5.87013e-08 1.65134e-06 0.0005 
939 1 -0.00514838 -0.0116585 0.000499609 -4.33018e-05 3.87933e-05 5.53439e-06 2.00025e-08 -4.67093e-08 6.82168e-09 -9.17891e-08 6.34098e-08 1.2195e-06 0.0005 
1758 1 -0.00414837 -0.0116555 0.000499708 -6.91181e-05 -6.45804e-06 2.55322e-06 -3.89561e-08 -9.76913e-08 2.12341e-08 1.89457e-08 8.71503e-08 1.05104e-06 0.0005 
656 1 -0.00322137 -0.0112548 0.000500361 -7.40022e-05 -3.57187e-06 2.73503e-05 6.90966e-08 -3.02875e-08 1.74306e-08 1.51468e-07 1.21821e-07 1.12509e-06 0.0005 
758 1 -0.00220717 -0.0114574 0.000499655 -0.000109901 -2.47973e-05 1.82562e-05 8.74238e-08 -8.73918e-08 4.93436e-08 1.25433e-07 1.16692e-07 1.06692e-06 0.0005 
319 1 -0.00120084 -0.0115114 0.000499769 -6.05249e-06 -0.000219224 3.33099e-05 2.55243e-08 3.85842e-08 -2.99139e-08 9.22059e-08 7.2579e-08 1.04134e-06 0.0005 
511 1 -1.1552e-05 -0.0111125 0.000499488 -8.03925e-05 -8.10545e-05 -6.09162e-06 8.58463e-08 2.83475e-07 3.37145e-08 2.40628e-08 -1.53552e-07 9.8096e-07 0.0005 
1144 1 -0.0080279 -0.0106668 0.000499826 -2.89068e-05 1.81993e-05 -6.13863e-06 -2.0457e-08 -1.92009e-08 -2.62688e-08 -3.12735e-07 -1.18886e-07 1.40102e-06 0.0005 
353 1 -0.00577742 -0.0108814 0.000499644 -6.23598e-05 6.70159e-06 -2.44578e-05 -5.93971e-08 -1.56665e-07 2.46462e-08 -1.23917e-07 -4.28285e-08 1.1279e-06 0.0005 
1818 1 -0.00394026 -0.0105605 0.000499552 -9.08518e-05 -3.05541e-05 -1.10399e-05 -3.11062e-08 -1.00741e-07 2.16751e-08 1.26542e-07 4.6547e-08 1.12164e-06 0.0005 
1873 1 -0.00258288 -0.0104857 0.000499579 -5.23913e-05 1.25605e-05 5.23411e-06 6.90423e-08 2.06993e-08 6.18845e-09 1.38341e-07 4.28614e-09 1.09591e-06 0.0005 
2211 1 -0.00075471 -0.0104437 0.000499437 -6.19199e-05 -7.77675e-05 1.60515e-05 1.1764e-07 6.42634e-08 -3.28296e-08 4.2862e-08 -9.58603e-08 1.01933e-06 0.0005 
647 1 -0.00885778 -0.00998821 0.000499755 -2.39538e-05 4.49695e-06 5.22062e-06 -1.72803e-08 -3.0742e-08 -2.58699e-10 -2.40893e-07 -2.04044e-07 1.37214e-06 0.0005 
542 1 -0.00734074 -0.00994054 0.000499485 -4.72147e-05 1.2455e-05 1.23177e-05 -4.07247e-08 -8.13489e-08 -1.36894e-08 -3.2025e-07 -2.11358e-07 1.07437e-06 0.0005 
1585 1 -0.00535723 -0.00994051 0.000499524 -5.19329e-05 3.30184e-05 -4.58061e-06 -4.11848e-08 -5.61531e-08 3.96144e-09 -1.80211e-08 -1.36223e-07 1.11144e-06 0.0005 
2142 1 -0.00325618 -0.00974673 0.000499557 -4.04657e-05 4.30701e-05 1.83004e-06 8.2628e-09 1.45206e-08 6.36294e-09 1.2744e-07 -6.39594e-08 1.07881e-06 0.0005 
2090 1 -0.00148714 -0.00976295 0.000499797 -4.59982e-05 -4.99576e-05 6.02115e-06 -1.00219e-07 -8.75184e-08 4.23861e-09 9.0638e-08 -3.01238e-07 9.79853e-07 0.0005 
2330 1 -0.00886398 -0.00898517 0.000499359 -3.4169e-05 2.82123e-05 7.27503e-06 -2.54702e-08 -4.43263e-08 -3.5599e-08 -2.52344e-07 -2.41048e-07 1.02018e-06 0.0005 
733 1 -0.00681327 -0.00907558 0.000499623 -2.41091e-05 1.68056e-05 -3.09881e-05 -3.45733e-08 1.58902e-08 -6.33197e-08 -2.2558e-07 -1.45439e-07 1.11067e-06 0.0005 
1443 1 -0.00575442 -0.00889296 0.000499752 -3.6512e-05 1.1405e-05 -1.13341e-05 -5.76945e-08 3.81281e-08 -3.11366e-08 -4.78875e-08 -1.27635e-07 1.12117e-06 0.0005 
1221 1 -0.00475465 -0.00887506 0.000499556 -3.40421e-05 3.47636e-05 5.60044e-06 -1.61764e-08 -1.02671e-07 2.14777e-09 6.15257e-08 -1.15835e-07 1.12174e-06 0.0005 
388 1 -0.00320851 -0.00874433 0.000499768 -2.73738e-05 1.36075e-05 -8.41601e-06 -8.33317e-11 -1.97307e-08 2.29086e-08 8.79384e-08 -5.30833e-08 1.07654e-06 0.0005 
823 1 -0.00235934 -0.00927231 0.000499738 2.09773e-05 1.88834e-05 2.05135e-05 5.74049e-08 6.94215e-08 6.4658e-09 1.12868e-07 -1.53296e-07 1.05855e-06 0.0005 
714 1 -0.00108393 -0.00881263 0.000499584 -1.69922e-05 -3.79335e-05 1.50721e-06 5.79674e-08 1.08609e-07 -8.05877e-08 9.81141e-08 -3.22867e-07 1.01945e-06 0.0005 
462 1 -8.56396e-05 -0.00886706 0.000499504 -2.02754e-05 -2.24443e-05 8.20075e-06 -1.21244e-07 1.045e-07 3.42339e-08 6.07065e-08 -1.49675e-07 9.35676e-07 0.0005 
529 1 -0.010211 -0.00860018 0.000499775 8.74898e-06 -1.55936e-05 -5.081e-06 3.2537e-08 -3.76241e-08 -6.49032e-10 1.28578e-07 -3.36015e-07 1.49875e-06 0.0005 
359 1 -0.00934139 -0.00810692 0.000499629 -2.53322e-05 1.97717e-05 -1.19438e-05 2.18588e-08 -1.28872e-08 -1.19728e-08 -1.6257e-07 -1.83982e-07 1.06149e-06 0.0005 
1505 1 -0.00808089 -0.00836337 0.000499731 5.79277e-06 4.62869e-06 6.2856e-07 -3.95228e-08 6.363e-09 5.51212e-09 -3.0453e-07 -1.05768e-07 1.04298e-06 0.0005 
2252 1 -0.00614062 -0.00796984 0.000499684 -4.77283e-05 -2.83923e-06 2.62382e-05 3.26256e-08 3.50466e-08 -4.01536e-08 -9.82519e-08 3.91259e-08 1.13021e-06 0.0005 
2042 1 -0.00232665 -0.00827296 0.000499676 8.15149e-06 8.83229e-06 5.67742e-07 8.79615e-08 2.8157e-09 -2.5266e-08 -4.63178e-09 -1.28812e-07 1.08501e-06 0.0005 
1539 1 -0.0108395 -0.0077929 0.000499747 -2.74185e-05 3.08831e-05 3.72352e-07 -2.08604e-08 2.37205e-08 -4.85115e-08 2.22195e-07 -2.63405e-07 1.73168e-06 0.0005 
986 1 -0.00813237 -0.00736479 0.000499777 -2.4204e-05 8.23828e-06 -3.00446e-06 -8.75216e-08 -3.59278e-08 -4.3413e-09 -3.85217e-07 -1.17812e-07 1.00769e-06 0.0005 
1847 1 -0.00710279 -0.00769799 0.000499487 -5.7522e-05 -1.1778e-06 -4.10301e-06 -3.06241e-08 -1.82957e-08 -1.98167e-08 -2.31673e-07 5.87473e-09 1.1495e-06 0.0005 
1447 1 -0.00561102 -0.00712161 0.000499781 -6.89328e-05 5.56658e-06 -2.17924e-06 5.69871e-08 3.73564e-09 1.78608e-08 -3.81109e-09 1.05035e-07 1.13111e-06 0.0005 
1848 1 -0.00461849 -0.00724288 0.000499674 -5.81448e-05 9.38197e-06 1.20058e-05 1.0449e-07 -6.82743e-08 -2.89592e-08 4.22201e-08 2.20349e-07 1.18914e-06 0.0005 
2417 1 -0.00359173 -0.00735069 0.000499664 -3.65453e-05 7.45648e-05 -5.89046e-06 -8.27766e-08 -3.43496e-08 -1.99456e-08 -6.56492e-08 1.12763e-07 1.13864e-06 0.0005 
1462 1 -0.00259276 -0.00730916 0.000499447 -5.8865e-05 -4.24471e-05 1.37044e-05 -1.2649e-07 -3.02779e-08 1.99323e-08 -1.24697e-07 -2.87904e-08 1.08778e-06 0.0005 
46 1 -0.00131124 -0.00783892 0.000499729 1.90269e-05 -3.41881e-05 -5.95757e-07 -7.22296e-08 -6.21906e-08 4.06522e-08 1.37159e-07 -3.60317e-07 1.17478e-06 0.0005 
1432 1 -0.000188978 -0.00787274 0.000499567 -3.93973e-05 1.64326e-05 -2.72722e-05 5.03351e-08 4.14175e-08 -7.29814e-08 2.09651e-07 -2.18309e-07 1.04055e-06 0.0005 
2195 1 -0.0115895 -0.0066006 0.00049956 1.94363e-05 -4.249e-06 6.02089e-06 8.59649e-08 3.43442e-08 -1.59953e-08 3.88913e-07 -5.59982e-08 1.93521e-06 0.0005 
1429 1 -0.010593 -0.00682378 0.000499799 -1.6437e-05 2.50253e-05 -7.85024e-06 1.35686e-08 1.97284e-08 2.53571e-08 2.26954e-07 -9.18957e-08 1.18584e-06 0.0005 
551 1 -0.00959897 -0.00693289 0.000499631 -1.61561e-05 1.60822e-05 7.50756e-07 -5.19446e-10 -1.87807e-08 -5.94819e-08 -2.55327e-08 -1.10706e-07 1.08474e-06 0.0005 
490 1 -0.00778351 -0.0063466 0.000499547 -7.27054e-05 1.35542e-05 -7.24708e-06 3.40288e-08 -5.34913e-08 -2.39304e-08 -3.39144e-07 -5.21546e-08 1.07498e-06 0.0005 
1485 1 -0.00647022 -0.00658678 0.000499749 -0.000107832 -7.74051e-05 -2.29316e-05 -1.05339e-07 9.89973e-09 -3.00689e-08 -5.6507e-08 -5.34073e-09 1.1333e-06 0.0005 
74 1 -0.0040506 -0.00639772 0.00049966 -0.000108691 -6.82976e-05 -6.41559e-07 -7.66935e-08 6.22563e-08 -8.02519e-08 8.03537e-08 1.83616e-07 1.03225e-06 0.0005 
606 1 -0.0109688 -0.0058162 0.0004998 -1.84335e-05 5.87842e-06 -4.15598e-06 -3.45588e-08 2.06088e-09 -1.15469e-08 3.23956e-07 -1.54493e-08 1.30963e-06 0.0005 
1293 1 -0.00998815 -0.0060119 0.000499702 -3.6485e-05 -8.50116e-07 -1.41842e-06 -2.99077e-08 -8.20371e-08 5.56574e-09 2.62256e-07 -3.33337e-08 1.17732e-06 0.0005 
1263 1 -0.0088481 -0.00627248 0.000499797 3.84281e-05 -3.75088e-05 -6.74888e-07 -1.90435e-08 3.80897e-09 -6.6442e-09 -1.60854e-07 -1.17068e-07 1.04324e-06 0.0005 
1248 1 -0.00701536 -0.00570659 0.000499763 -7.63054e-05 -6.331e-06 4.18671e-06 4.05656e-08 1.70097e-08 -7.70897e-08 -1.97583e-07 -8.39597e-10 1.1005e-06 0.0005 
1101 1 -0.00560723 -0.00601454 0.000499505 -0.000104769 -6.0938e-06 1.48101e-05 -1.40403e-08 1.0422e-08 -2.82039e-08 8.85569e-08 4.8035e-08 1.13428e-06 0.0005 
817 1 -0.00467804 -0.00561365 0.00049965 -1.98777e-05 3.74222e-06 1.21109e-05 2.32896e-08 -5.58751e-08 -3.89318e-08 1.16163e-07 1.75873e-07 1.035e-06 0.0005 
1969 1 -0.00335261 -0.00559066 0.000499567 -2.63528e-05 3.92961e-06 1.48816e-05 3.16974e-08 -3.20462e-08 -1.33179e-08 -2.55108e-07 -4.73818e-09 1.02674e-06 0.0005 
266 1 -0.00225143 -0.00609192 0.000499602 -6.30371e-05 -5.19039e-05 3.97671e-06 9.76089e-08 -1.23266e-08 1.33452e-08 -3.99003e-07 -1.88701e-07 1.02287e-06 0.0005 
1477 1 -0.000921382 -0.00625674 0.000499553 -0.000160115 1.98863e-05 3.0362e-06 -5.08724e-08 -2.63897e-07 -4.86006e-08 5.7396e-08 -7.81059e-08 1.25834e-06 0.0005 
740 1 -8.92526e-05 -0.00559028 0.000499655 5.681e-05 -0.000197604 6.9443e-06 -1.07758e-07 6.80363e-08 3.23081e-09 2.84573e-07 -1.13417e-07 9.93675e-07 0.0005 
1091 1 -0.0121723 -0.00548367 0.000499511 8.34632e-08 -1.19858e-05 2.32255e-06 1.1952e-08 -1.36217e-08 -6.54472e-09 2.77056e-07 3.75707e-09 2.03721e-06 0.0005 
900 1 -0.0113627 -0.0048971 0.000499627 -1.68547e-05 1.24973e-05 1.22925e-06 1.96302e-08 1.68668e-08 -9.94622e-11 2.02219e-07 -1.33277e-08 1.08804e-06 0.0005 
1315 1 -0.0103089 -0.00483827 0.000499643 -2.9769e-05 5.17529e-05 -4.9717e-06 -7.29489e-08 -7.19526e-08 -8.39628e-09 2.13136e-07 -3.18868e-09 1.15465e-06 0.0005 
53 1 -0.00867317 -0.00528378 0.000499552 -4.29552e-05 1.15157e-05 4.04575e-07 -6.26136e-08 -3.22364e-08 -3.28869e-08 -4.17913e-08 -1.08385e-07 1.09178e-06 0.0005 
93 1 -0.00731815 -0.00475355 0.000499738 -2.89019e-05 -8.8382e-06 8.47217e-06 -3.31649e-08 -5.53016e-08 -1.2111e-08 -2.46267e-08 -3.22418e-08 1.07319e-06 0.0005 
1403 1 -0.00565006 -0.00495822 0.000499694 -5.46672e-06 9.74226e-06 1.42396e-05 2.20835e-07 1.98758e-07 1.41957e-07 5.04015e-08 9.42332e-08 1.11518e-06 0.0005 
2181 1 -0.00395613 -0.00479378 0.000499575 -6.71708e-05 -3.0721e-05 2.30087e-06 -4.63567e-08 -4.74003e-08 5.49494e-09 -1.96768e-07 4.6332e-08 1.08623e-06 0.0005 
152 1 -0.00257332 -0.00496445 0.000499786 -3.69358e-05 4.28503e-05 1.88908e-05 -2.41341e-09 -4.17673e-08 -1.87507e-08 -2.99203e-07 3.04353e-08 1.20906e-06 0.0005 
262 1 -0.000964346 -0.0050995 0.000499697 1.51122e-05 -7.03767e-05 -1.426e-05 1.48818e-07 -2.86009e-08 -1.91987e-08 6.97249e-08 7.81582e-08 1.27216e-06 0.0005 
890 1 -0.0125483 -0.00455716 0.000499758 1.56503e-06 -1.90705e-05 4.10367e-06 1.12015e-08 3.44909e-09 4.28441e-09 8.73002e-08 6.31136e-09 1.89384e-06 0.0005 
2 1 -0.0108907 -0.00401586 0.00049985 -2.88579e-05 1.92901e-05 4.71484e-06 1.76957e-09 1.99651e-08 -2.21938e-08 9.24793e-08 -2.8764e-08 1.04545e-06 0.0005 
12 1 -0.00938513 -0.00445535 0.000499719 -4.21105e-05 5.01076e-05 1.24169e-05 -2.40216e-08 1.27566e-08 1.78556e-09 2.72879e-08 -3.18979e-08 1.09324e-06 0.0005 
1415 1 -0.00839384 -0.00432379 0.000499636 -2.02763e-05 -7.48789e-07 -3.92357e-06 3.68554e-10 -2.37342e-08 -1.76748e-08 -1.60757e-08 -3.87875e-08 1.07688e-06 0.0005 
2064 1 -0.00595356 -0.00400557 0.000499413 -2.57193e-05 -6.34867e-06 -1.49329e-06 9.51524e-09 5.72249e-08 -2.3903e-08 6.39539e-08 1.23572e-07 1.1089e-06 0.0005 
1452 1 -0.00495414 -0.00402706 0.000499681 -8.25575e-06 7.72784e-05 -3.48421e-06 -3.44584e-08 -1.93871e-08 3.28985e-08 -2.12874e-08 9.67034e-08 1.09292e-06 0.0005 
1459 1 -0.00317681 -0.00416729 0.000499679 -8.27e-05 4.11752e-05 6.33573e-06 -5.40904e-08 -1.39682e-08 -1.81835e-08 -2.69415e-07 1.1443e-07 1.23745e-06 0.0005 
1507 1 -0.00173861 -0.00441407 0.000499775 0.000115405 -0.000208561 2.26032e-05 -3.79008e-08 -5.21227e-08 5.13697e-08 -1.3285e-07 1.56454e-07 1.27295e-06 0.0005 
2217 1 -0.000784178 -0.00411598 0.00049957 7.66488e-05 -8.85414e-05 1.1894e-05 5.24521e-08 -8.82664e-08 1.59032e-07 1.82028e-07 2.78759e-07 1.28398e-06 0.0005 
982 1 -0.0128713 -0.00346812 0.000499655 0.000465935 -1.51851e-05 2.99169e-06 2.43112e-08 2.83446e-08 4.35712e-09 4.52667e-08 -7.42949e-09 1.84092e-06 0.0005 
1544 1 -0.00998377 -0.00359532 0.000499764 4.1263e-06 -3.76643e-05 9.86944e-06 2.90149e-08 -8.11574e-08 3.79226e-10 1.23284e-08 3.77504e-09 1.07562e-06 0.0005 
2007 1 -0.0089869 -0.0035189 0.000499753 -2.77692e-06 5.35261e-06 -7.84825e-07 2.86052e-08 -4.31772e-08 -1.54477e-08 -8.66755e-08 6.90953e-08 1.10806e-06 0.0005 
1617 1 -0.00781299 -0.00350134 0.000499539 -4.76864e-05 -3.97431e-05 -6.34006e-06 1.4332e-07 4.94146e-09 -5.41967e-08 -5.21921e-09 2.88935e-08 1.11858e-06 0.0005 
230 1 -0.00403291 -0.00361764 0.000499658 6.5126e-05 -2.52827e-05 -5.78558e-06 -1.61904e-07 2.49832e-07 2.48878e-08 -1.10166e-07 1.31722e-07 1.0727e-06 0.0005 
1067 1 -0.00239661 -0.0035421 0.000499556 -1.58135e-05 -1.26383e-05 1.68803e-06 -5.66908e-08 3.05066e-08 1.04947e-07 -2.47751e-07 2.24325e-07 1.16571e-06 0.0005 
9 1 -0.0130642 -0.00247496 0.000499709 5.71044e-05 -8.98962e-05 8.58387e-07 2.66029e-08 1.75209e-08 9.80724e-09 1.11992e-07 -6.37686e-08 1.87759e-06 0.0005 
2406 1 -0.0116623 -0.00306351 0.000499504 -4.25077e-05 1.81771e-05 -5.39495e-06 4.69292e-09 3.59616e-08 -4.98158e-09 9.97905e-08 -3.42423e-08 1.11062e-06 0.0005 
178 1 -0.00953626 -0.00268074 0.000499748 -2.68599e-05 0.000109974 6.07897e-06 -5.22878e-08 -2.84074e-07 -3.96037e-08 -5.52308e-08 5.65975e-08 1.1084e-06 0.0005 
1238 1 -0.00853166 -0.00262885 0.000499596 7.09653e-06 -5.92601e-06 5.32625e-07 6.88927e-09 -5.80443e-08 3.18435e-08 -5.64742e-08 4.63413e-08 1.11956e-06 0.0005 
1610 1 -0.00702401 -0.00270971 0.000499799 3.32039e-05 0.000584317 -8.04715e-06 -3.54767e-07 9.45473e-08 -8.86048e-08 7.94643e-08 7.86736e-08 1.11296e-06 0.0005 
391 1 -0.00603801 -0.00287624 0.000499797 2.46618e-05 0.000136923 2.95793e-06 -3.73025e-07 -2.02298e-07 4.83267e-09 2.05439e-07 1.32474e-07 1.06769e-06 0.0005 
1178 1 -0.00504999 -0.00303025 0.000499781 -3.25484e-05 -0.000325342 2.19241e-06 -1.02275e-07 9.04952e-08 1.05632e-07 1.34923e-07 1.42453e-07 1.04463e-06 0.0005 
1798 1 -0.0041509 -0.00259265 0.000499741 -0.000108497 -9.74834e-05 -6.4267e-06 4.99106e-08 1.60894e-07 -1.41095e-09 1.13308e-07 1.64825e-07 1.03119e-06 0.0005 
619 1 -0.00324037 -0.00300575 0.000499658 3.05387e-05 9.63909e-05 3.89768e-05 -8.81427e-08 -4.52786e-08 -3.46592e-08 -1.86769e-07 2.43644e-07 1.01765e-06 0.0005 
38 1 -0.0023764 -0.00250215 0.000499734 0.000119541 0.000249601 -4.38107e-05 -5.71794e-08 -7.04327e-08 -1.14924e-07 -2.81839e-07 3.3392e-07 1.01027e-06 0.0005 
736 1 -0.000799411 -0.00294429 0.000499745 4.2271e-05 -0.000224788 2.70388e-05 6.63592e-08 1.14583e-07 2.11563e-07 -8.31685e-08 2.1589e-07 1.25273e-06 0.0005 
186 1 -0.0124311 -0.00170116 0.000499602 -2.40512e-05 5.27644e-06 1.14783e-05 -4.84808e-08 5.09823e-08 -2.74204e-08 2.07626e-07 -9.64261e-08 1.24145e-06 0.0005 
459 1 -0.0114442 -0.00208785 0.000499744 3.31915e-05 -1.19306e-05 -4.95098e-06 8.62745e-08 1.08328e-08 -2.67752e-08 2.29116e-07 -5.20592e-08 1.13082e-06 0.0005 
866 1 -0.0104744 -0.00233453 0.000499683 -5.82214e-05 1.50273e-06 -7.8083e-06 3.78338e-08 4.59337e-08 2.34677e-10 1.04593e-07 -4.60285e-08 1.04701e-06 0.0005 
1411 1 -0.00937994 -0.00168295 0.000499608 4.94487e-05 -4.41058e-05 1.11075e-05 2.6933e-07 -3.46071e-07 -9.85097e-08 5.18713e-08 -9.39965e-08 1.00493e-06 0.0005 
1278 1 -0.00775093 -0.00200431 0.000499641 8.14867e-06 -9.08328e-08 -2.36412e-05 3.4616e-08 -1.34688e-07 4.93306e-08 8.243e-10 4.50988e-08 1.10417e-06 0.0005 
62 1 -0.0059646 -0.00187496 0.000499762 -0.000134177 3.27132e-05 2.23679e-05 2.62405e-07 2.05001e-07 -4.02996e-09 1.82754e-07 6.00185e-08 1.06868e-06 0.0005 
1669 1 -0.00497657 -0.0020288 0.00049967 -0.000165928 -0.000113431 3.07326e-05 6.14516e-08 4.38999e-08 1.63094e-07 1.71109e-07 5.87788e-08 1.00481e-06 0.0005 
695 1 -0.001252 -0.0019736 0.000499741 0.000238641 9.42207e-05 1.05933e-05 -3.77118e-07 -3.77845e-07 -4.7975e-08 -1.66301e-07 1.62798e-07 1.23441e-06 0.0005 
1530 1 -0.0132961 -0.00119953 0.000499792 1.12755e-05 3.12045e-05 -1.96843e-06 1.05834e-11 6.57761e-08 -4.1762e-08 1.62563e-07 -6.47985e-08 1.97256e-06 0.0005 
1654 1 -0.0107138 -0.00136388 0.000499546 2.06057e-05 -9.30409e-06 -1.00328e-05 8.07222e-08 2.37963e-08 -5.71486e-08 2.6196e-07 -4.97856e-08 1.15094e-06 0.0005 
299 1 -0.00773358 -0.00100462 0.000499689 3.30395e-05 -1.9993e-05 -9.18694e-06 8.92656e-08 -7.11344e-08 8.78074e-09 -6.87041e-08 4.78245e-08 1.03211e-06 0.0005 
98 1 -0.0066767 -0.0010628 0.000499473 -8.79942e-05 -2.70511e-05 -7.30821e-07 -2.26952e-08 -2.48196e-08 -6.75746e-08 1.03084e-07 4.30225e-08 1.06585e-06 0.0005 
1060 1 -0.00391667 -0.00156995 0.000499483 -9.93126e-05 -2.06909e-05 3.64648e-05 -3.09043e-07 2.53683e-07 -8.8398e-09 -7.36358e-09 -8.83884e-08 9.62389e-07 0.0005 
781 1 -0.00215255 -0.00125577 0.00049973 -7.79947e-05 -5.90997e-05 -1.94145e-05 -1.5597e-07 -9.89232e-09 -1.49476e-09 -2.63931e-07 -4.45167e-08 9.83018e-07 0.0005 
1955 1 -0.000334768 -0.00148157 0.000499538 1.31013e-06 -4.27425e-05 1.64292e-05 -1.02853e-07 -1.627e-07 1.87712e-07 -1.94623e-08 1.56216e-07 1.14369e-06 0.0005 
1675 1 -0.0124429 -0.000622015 0.000499598 4.58876e-05 2.13967e-05 2.44385e-05 3.44839e-08 -3.08291e-08 2.3333e-08 2.22973e-07 -4.47433e-08 1.23925e-06 0.0005 
2125 1 -0.0114044 -3.94954e-05 0.000499763 0.000193861 -7.46875e-05 6.56649e-07 -9.11098e-08 2.93902e-08 -1.96893e-08 1.20842e-07 6.45337e-08 1.18686e-06 0.0005 
2169 1 -0.00953132 -0.000694545 0.00049975 3.95067e-05 -3.12185e-05 2.39891e-05 -5.67726e-08 9.27744e-08 5.08435e-08 1.13014e-07 -1.56768e-07 9.95975e-07 0.0005 
6577 1 -0.00858454 -0.000373475 0.000499652 3.72949e-05 -5.73051e-05 9.09424e-06 3.61556e-11 -1.23676e-07 -7.04431e-08 6.14503e-08 -4.34453e-08 1.00523e-06 0.0005 
6638 1 -0.00682965 -7.49638e-05 0.000499518 -3.86805e-05 1.54039e-05 -1.29786e-06 -1.17261e-07 -1.42072e-07 8.7931e-08 6.85321e-08 5.62749e-08 9.56499e-07 0.0005 
1600 1 -0.00576717 -0.000647601 0.000499606 -6.41544e-05 7.85856e-06 -6.12828e-06 -1.60959e-07 2.35171e-07 -1.66288e-07 1.33718e-07 -2.52652e-08 1.07528e-06 0.0005 
108 1 -0.00327019 -0.000744415 0.000499696 -9.03858e-05 -6.06153e-05 -2.52585e-05 -1.3813e-08 9.05128e-08 1.8456e-09 -1.40364e-07 -1.87823e-07 9.70434e-07 0.0005 
288 1 -0.00179168 -0.000323347 0.00049956 -0.000104997 4.29006e-05 2.79677e-05 5.10465e-08 -1.43788e-07 -6.06854e-09 -5.06249e-08 -6.67303e-08 1.03849e-06 0.0005 
1934 1 -0.000390391 -0.000483283 0.000499558 -0.00012515 -6.37591e-05 3.52479e-06 -4.53822e-08 -1.88473e-07 1.73025e-07 6.55771e-08 1.49396e-07 1.14176e-06 0.0005 
1180 1 -0.00374323 -0.0128147 0.000926092 -4.77252e-05 -7.4842e-07 -6.71834e-05 1.59343e-08 -3.70359e-08 -2.99677e-08 7.44479e-09 8.70676e-08 2.13527e-06 0.0005 
1047 1 -0.00271456 -0.0130715 0.000941051 2.3722e-06 -1.58526e-05 -2.54126e-05 5.85096e-09 -3.46471e-08 5.14952e-08 1.39005e-07 1.19385e-07 2.29448e-06 0.0005 
2053 1 -0.00467662 -0.0125043 0.000747703 -4.5702e-05 2.08041e-05 -7.52027e-05 6.20218e-08 9.71617e-09 -1.31786e-07 -7.3378e-08 1.04127e-07 2.00697e-06 0.0005 
427 1 -0.00477357 -0.0110175 0.00116912 -0.000100538 5.30273e-05 2.38345e-05 -7.82628e-08 -5.15534e-08 3.66848e-08 1.02467e-09 2.17244e-08 2.31129e-06 0.0005 
2081 1 -0.00166365 -0.0106883 0.000835556 -7.45549e-05 -5.07525e-05 -7.02378e-06 1.14854e-07 2.903e-08 1.66201e-08 7.33855e-08 1.33665e-08 1.66173e-06 0.0005 
1375 1 -0.00811408 -0.00948135 0.000935507 -5.95474e-05 1.41612e-05 5.38377e-06 -6.16464e-08 -1.05021e-07 -3.96271e-08 -3.58422e-07 -2.65565e-07 1.99073e-06 0.0005 
1658 1 -0.00634902 -0.0100617 0.000530988 -4.99211e-05 1.6781e-05 2.27121e-06 -3.74763e-08 -1.69334e-07 2.55961e-08 -1.5553e-07 -1.63111e-07 1.18264e-06 0.0005 
110 1 -0.00455845 -0.0100442 0.00109149 -6.71243e-05 2.48e-05 -1.47186e-05 -1.09022e-08 -8.57801e-08 3.69182e-08 4.29618e-08 -5.7319e-08 2.16837e-06 0.0005 
1487 1 -0.0022418 -0.00992132 0.00125112 -2.86937e-05 -8.84558e-06 1.70051e-05 2.95468e-08 4.90883e-08 2.39199e-08 6.71716e-08 -1.13549e-07 2.33495e-06 0.0005 
2461 1 -0.00958256 -0.00929574 0.00112057 -5.92336e-05 5.90507e-05 -1.56015e-05 -1.46149e-08 -2.87903e-08 -2.27998e-08 -5.03862e-08 -2.78677e-07 2.45593e-06 0.0005 
1750 1 -0.00396683 -0.00924454 0.00099185 -5.48278e-05 -9.59304e-06 -2.74797e-05 -2.64885e-08 -8.96444e-08 -1.94713e-08 1.13358e-07 -1.02728e-07 2.15871e-06 0.0005 
243 1 -0.00696518 -0.00838822 0.00120963 -3.04249e-05 -3.08054e-05 -1.7473e-05 3.51165e-08 -1.59497e-08 -6.06968e-08 -2.26504e-07 6.08533e-08 3.00001e-06 0.0005 
948 1 -0.00518312 -0.00801767 0.000783475 -7.1741e-05 2.28838e-05 1.28204e-05 8.61914e-08 -4.69435e-08 -2.53276e-08 1.60398e-08 1.01737e-07 1.78471e-06 0.0005 
793 1 -0.00403143 -0.00822095 0.000720217 -4.50412e-05 6.54351e-05 1.69451e-05 -2.94194e-08 -7.02911e-08 -4.54457e-09 2.51801e-08 8.32417e-08 1.44533e-06 0.0005 
1694 1 -0.00170099 -0.00853308 0.00123475 -4.30177e-05 -6.01142e-05 1.83938e-05 1.06736e-07 -2.82081e-08 -2.55967e-08 4.04526e-08 -2.41446e-07 2.38562e-06 0.0005 
842 1 -0.0100258 -0.00764183 0.00106077 -3.07439e-05 1.10532e-05 -2.54205e-06 1.96017e-09 1.06333e-08 -4.62384e-08 1.45069e-08 -2.22571e-07 2.21173e-06 0.0005 
239 1 -0.00900748 -0.00741857 0.00114303 -6.56136e-05 9.80881e-06 1.03395e-05 -5.66057e-08 5.88959e-08 -4.23213e-08 -2.83634e-07 -1.41981e-07 2.37447e-06 0.0005 
13 1 -0.0030482 -0.00786655 0.00119308 -0.000116909 -4.09225e-05 -3.46235e-05 1.79718e-08 -1.02204e-07 -4.15663e-08 -1.08317e-07 2.35156e-08 2.48701e-06 0.0005 
1059 1 -0.00717792 -0.00674233 0.00118949 -9.50178e-05 3.43795e-06 8.73274e-06 1.37099e-08 -7.19472e-08 4.16669e-08 -2.88059e-07 -1.92868e-08 2.48039e-06 0.0005 
830 1 -0.00488265 -0.00642403 0.00105328 -0.000117531 -3.52876e-05 2.65523e-05 -1.8719e-08 -9.26443e-08 -1.30144e-07 1.25504e-07 1.50885e-07 2.12002e-06 0.0005 
515 1 -0.00310624 -0.00650892 0.000808106 -8.91669e-05 -3.38188e-05 1.87213e-05 -1.01484e-07 1.4652e-08 1.79094e-08 -2.97657e-07 -5.85891e-08 1.58202e-06 0.0005 
2336 1 -0.0016774 -0.00690949 0.000541508 -5.73422e-05 -7.10944e-05 -9.10405e-06 -9.72694e-08 -2.06099e-07 -7.69843e-08 -9.15842e-08 -1.51455e-07 1.07169e-06 0.0005 
2421 1 -0.000544964 -0.00706023 0.000960208 -5.88379e-05 8.74169e-06 -7.11322e-05 8.77547e-08 1.32952e-09 -2.38572e-07 1.71763e-07 -2.51122e-07 2.16915e-06 0.0005 
1645 1 -0.00625573 -0.00560771 0.00114227 -0.000127809 3.44023e-05 -3.11085e-05 5.15125e-08 1.01404e-07 -1.55546e-07 7.18259e-08 -1.87136e-09 2.48344e-06 0.0005 
100 1 -0.00401377 -0.00568877 0.00124301 -3.40242e-05 0.000107129 6.07115e-05 5.66212e-08 -2.7235e-08 -6.75581e-08 7.60618e-08 1.74259e-07 2.44696e-06 0.0005 
2208 1 -0.00152778 -0.0056997 0.00106695 -0.000143892 6.5067e-05 2.61764e-05 2.24378e-07 -4.04564e-08 -7.49464e-08 -1.40525e-07 -3.36191e-08 2.38456e-06 0.0005 
220 1 -0.00939842 -0.0055252 0.00114375 -6.48846e-05 3.37752e-05 -3.57702e-06 -6.48326e-08 1.07606e-08 -3.63388e-08 1.30266e-07 -7.2574e-08 2.51926e-06 0.0005 
1211 1 -0.00784428 -0.00549362 0.00101736 -6.34738e-05 1.47362e-05 2.85363e-05 -8.98646e-08 -8.61871e-08 -2.64158e-08 -1.73526e-07 -6.29558e-08 2.04091e-06 0.0005 
565 1 -0.00329503 -0.00481903 0.00124906 -9.53556e-05 -4.8948e-06 4.99845e-05 1.21885e-07 -1.22615e-07 -9.84312e-08 -2.17179e-07 6.08729e-08 2.55186e-06 0.0005 
2300 1 -0.0118198 -0.00397961 0.000867299 -4.74402e-05 2.06044e-05 -1.13885e-06 4.67601e-10 4.44331e-08 9.41783e-09 6.57363e-08 1.00839e-08 2.01686e-06 0.0005 
1986 1 -0.00646792 -0.00463251 0.00108387 -0.000114637 4.82893e-05 -1.49296e-05 -3.46578e-08 5.16757e-08 7.4532e-09 1.57491e-08 6.94423e-08 2.28958e-06 0.0005 
1236 1 -0.00461555 -0.00461955 0.00123033 -0.000155537 -6.77018e-05 -3.84135e-05 -2.87258e-07 -2.72911e-07 -1.24942e-07 -1.07254e-07 4.9016e-08 2.51417e-06 0.0005 
483 1 -0.0025197 -0.00418769 0.00125293 -0.000135897 4.19734e-05 5.54804e-05 1.59475e-09 -1.94047e-07 -1.16394e-07 -3.55767e-07 1.09487e-07 3.03444e-06 0.0005 
696 1 -0.00687082 -0.00370754 0.00076242 -4.89257e-06 0.000157025 -4.80166e-05 8.56803e-09 -2.63669e-07 -5.77942e-08 5.16686e-08 5.41971e-08 1.54148e-06 0.0005 
704 1 -0.0014873 -0.00353931 0.000914987 -8.12707e-05 -0.000217082 7.27539e-05 4.04025e-08 1.44313e-07 5.60891e-07 -5.94012e-08 2.26356e-07 2.00591e-06 0.0005 
2160 1 -7.48147e-05 -0.00355069 0.000919864 -0.00010288 7.37023e-05 -4.93581e-05 1.06945e-07 -8.72702e-08 -1.43487e-07 5.59886e-08 1.55029e-07 1.89889e-06 0.0005 
532 1 -0.010793 -0.00314776 0.000985942 -4.40326e-05 2.08381e-05 1.87978e-06 2.87955e-08 1.32089e-08 -1.02269e-10 4.15372e-08 -5.23626e-08 2.08291e-06 0.0005 
1201 1 -0.0078193 -0.00277435 0.00118587 -2.02621e-05 -9.51706e-05 4.40718e-05 9.52214e-08 -5.57897e-08 -1.50547e-08 -1.9968e-08 6.49761e-08 2.65461e-06 0.0005 
2224 1 -0.00855642 -0.00179775 0.00105466 5.42511e-05 -3.55148e-05 -2.74609e-05 7.12281e-08 -8.08026e-08 1.99396e-07 -2.42458e-08 -8.6322e-09 1.96018e-06 0.0005 
1596 1 -0.00697072 -0.00181055 0.00109395 -4.805e-05 -6.31479e-05 -1.15845e-05 3.83467e-08 1.7458e-08 -1.09871e-09 5.94065e-08 6.27033e-08 2.04336e-06 0.0005 
2261 1 -0.00297449 -0.00175127 0.000779784 -0.000133611 -6.1482e-06 9.12415e-05 -2.71338e-07 1.47728e-07 1.31273e-08 -2.15929e-07 5.75356e-08 1.52031e-06 0.0005 
78 1 -0.011647 -0.00115289 0.000789553 2.30399e-05 -2.87224e-05 5.06648e-06 8.28052e-08 -4.40378e-09 3.07254e-08 3.16289e-07 -4.83946e-08 1.84799e-06 0.0005 
367 1 -0.0100524 -0.00115333 0.00121917 0.000251214 -0.000436278 -9.05243e-05 -6.42952e-07 1.22958e-06 2.66652e-07 1.95735e-07 -1.49952e-07 2.53086e-06 0.0005 
5 1 -0.00506998 -0.00116536 0.000994765 -9.42293e-05 -3.80582e-06 5.58765e-05 -3.9893e-07 4.24343e-08 1.23316e-08 1.13586e-07 -1.37419e-07 1.92478e-06 0.0005 
1357 1 -0.00116626 -0.00103208 0.000825175 -1.63462e-05 0.000131388 -9.07245e-05 -2.87523e-07 -3.53784e-07 2.86194e-07 -1.00055e-07 5.99453e-08 1.87594e-06 0.0005 
967 1 -0.0133487 -0.00020272 0.000558044 2.04116e-05 5.02426e-05 -8.28668e-05 6.65619e-08 -5.2057e-09 -3.19773e-07 1.63196e-07 6.3642e-08 2.10703e-06 0.0005 
2095 1 -0.0104785 -0.000400601 0.000626342 3.403e-05 -5.71168e-06 9.13989e-06 -1.16064e-07 8.89976e-08 6.19042e-08 1.94276e-07 -5.33587e-08 1.32506e-06 0.0005 
42 1 -0.00419894 -0.000688843 0.000878316 -0.000141573 3.70087e-05 -6.21733e-05 -3.2171e-07 4.33329e-08 2.0245e-08 3.13184e-08 -3.32733e-07 1.65308e-06 0.0005 
548 1 -0.0025256 -0.000552417 0.00113883 -0.000175097 -2.13418e-05 -5.81626e-07 -1.783e-07 -2.71449e-08 -1.42202e-07 -1.71604e-07 -1.88124e-07 2.34166e-06 0.0005 
805 1 -0.00292997 -0.0130184 0.00191586 -6.45892e-05 -3.93548e-05 -5.21096e-05 2.39888e-09 -2.16799e-07 2.38741e-07 5.99623e-08 6.14636e-08 3.65844e-06 0.0005 
643 1 -0.00198693 -0.0132017 0.00161399 -4.42463e-05 4.77502e-06 3.17573e-05 7.5345e-08 -1.12329e-08 -6.58382e-08 2.10479e-07 1.07903e-07 3.27686e-06 0.0005 
1951 1 -0.000907293 -0.0133192 0.00130776 -3.68908e-05 1.3138e-05 5.89362e-05 -2.46023e-08 -4.75657e-08 -7.66007e-08 2.74174e-07 8.90409e-08 2.72336e-06 0.0005 
1971 1 -0.000137372 -0.0126719 0.00125821 -7.95083e-05 -7.6066e-05 -1.03554e-05 1.35989e-07 2.70524e-07 -1.69818e-07 1.0819e-07 -1.93913e-07 2.30698e-06 0.0005 
2416 1 -0.000186337 -0.0133487 0.00199985 2.90014e-05 -9.85281e-06 1.49204e-05 -6.98162e-08 5.02144e-08 -1.63203e-07 1.27511e-07 -2.46822e-08 3.50042e-06 0.0005 
2017 1 -0.00570829 -0.0119602 0.00127101 -3.19684e-06 -1.50706e-05 1.01049e-05 1.31782e-07 -5.96236e-08 3.09332e-08 -1.776e-07 7.34942e-08 2.78511e-06 0.0005 
527 1 -0.00435897 -0.0126184 0.00168893 -6.03063e-05 3.82487e-05 -8.1212e-05 -7.65874e-08 3.23257e-09 -1.25989e-07 -5.04122e-08 9.27901e-08 3.23768e-06 0.0005 
2327 1 -0.00336289 -0.0120749 0.00148077 -0.000115513 -6.94499e-06 -5.45751e-05 -2.28373e-08 -1.52196e-07 1.0898e-07 3.54686e-08 1.3313e-07 2.89885e-06 0.0005 
886 1 -0.00238296 -0.0122683 0.00143544 -6.96067e-05 -1.06127e-05 -1.20862e-05 8.30252e-08 -8.9771e-08 4.08299e-08 1.37656e-07 1.5724e-07 2.77203e-06 0.0005 
848 1 -0.00141798 -0.0124609 0.00125837 -5.22592e-05 -1.11165e-06 2.12067e-05 1.03684e-07 -3.59161e-08 -6.03052e-08 2.65761e-07 1.88575e-07 2.65233e-06 0.0005 
125 1 -0.000674982 -0.011942 0.00168023 -2.61141e-05 -4.24751e-05 7.10698e-05 1.00822e-08 1.0621e-07 8.01874e-08 9.92765e-08 3.46474e-08 3.11556e-06 0.0005 
2456 1 -0.00683697 -0.0114666 0.00140308 -9.99992e-05 6.90085e-05 3.37133e-05 4.82653e-08 -8.75366e-08 3.45699e-08 -2.05175e-07 6.80076e-08 2.94247e-06 0.0005 
461 1 -0.0053996 -0.0112572 0.00191155 -7.91035e-05 6.86778e-06 1.24259e-05 -3.58428e-08 2.62848e-08 6.66827e-08 -1.0404e-07 5.68941e-08 3.68685e-06 0.0005 
2263 1 -0.00447878 -0.0116461 0.00188916 -5.54006e-05 2.17168e-05 5.34449e-05 -3.46096e-08 -1.50617e-08 -3.31855e-09 -2.49817e-08 9.32142e-08 3.55918e-06 0.0005 
1851 1 -0.00379949 -0.0111912 0.00131353 -9.56676e-05 2.56295e-05 3.32416e-06 4.20167e-08 -8.15944e-08 3.29425e-08 1.08854e-07 1.14118e-07 2.74812e-06 0.0005 
947 1 -0.00270771 -0.0113261 0.00135507 -7.07735e-05 -1.45743e-05 4.02646e-05 7.77541e-08 -7.35176e-09 7.21575e-08 1.25706e-07 1.24123e-07 2.71276e-06 0.0005 