ITEM: TIMESTEP
85000
ITEM: NUMBER OF ATOMS
10000
ITEM: BOX BOUNDS mm mm mm
-0.015 0.015
-0.015 0.015
-0.001 0.0554
ITEM: ATOMS id type x y z vx vy vz fx fy fz f_dragforce[1] f_dragforce[2] f_dragforce[3] radius 
1359 1 -0.00149322 -0.0132657 0.000499748 -1.82686e-06 1.62233e-05 3.69822e-05 3.1698e-07 6.15761e-07 3.54468e-08 1.9484e-07 1.87549e-07 1.70223e-06 0.0005 
637 1 -0.00304558 -0.0122391 0.000499208 -0.000135439 -5.15078e-05 -3.28049e-05 -4.63881e-08 3.80255e-07 8.53877e-08 -1.083e-07 3.57644e-07 1.09684e-06 0.0005 
1496 1 -0.00206764 -0.0124472 0.000499708 -5.82107e-06 -4.72677e-05 -2.02543e-06 -7.13572e-07 -4.69275e-07 1.4315e-07 1.27541e-07 3.55344e-07 1.20056e-06 0.0005 
502 1 -0.000772849 -0.0125193 0.000499401 7.54678e-05 -0.000122434 5.24542e-06 -3.99683e-07 1.54162e-07 -2.62656e-09 2.65466e-07 1.88234e-07 1.0957e-06 0.0005 
1195 1 -0.00706654 -0.0111049 0.000499481 -0.000172036 -2.07836e-05 -2.37316e-05 -8.5371e-08 2.72665e-08 -4.9604e-07 -3.74e-07 -3.09455e-08 1.29237e-06 0.0005 
1356 1 -0.00631362 -0.0117628 0.000499741 -4.0707e-06 5.29234e-05 5.61364e-05 1.6578e-07 3.33958e-07 1.87896e-08 -3.71785e-07 6.08263e-08 1.45634e-06 0.0005 
939 1 -0.00514888 -0.011657 0.000499573 -8.94797e-05 -9.63102e-05 3.95419e-05 2.71956e-07 -9.5186e-08 1.80103e-07 -2.76179e-07 1.92811e-07 1.10061e-06 0.0005 
1758 1 -0.00414704 -0.0116565 0.000499647 -0.000957383 0.000632095 -1.36496e-05 1.63406e-07 -8.30188e-08 1.983e-07 -1.77156e-07 3.52447e-07 1.02516e-06 0.0005 
656 1 -0.00322007 -0.011255 0.000500209 -0.00013734 -0.000118352 -2.82364e-05 2.06585e-07 5.32861e-07 1.64327e-07 2.25313e-08 6.79596e-07 1.10969e-06 0.0005 
758 1 -0.00220707 -0.011457 0.000499709 -9.58203e-06 -0.000241005 9.63146e-05 7.61022e-08 5.0277e-07 -2.148e-07 4.29243e-08 5.081e-07 1.14591e-06 0.0005 
319 1 -0.0010993 -0.0115737 0.000499745 -0.000311604 8.81517e-05 -8.99029e-06 -2.66277e-07 -1.5316e-07 -7.55485e-09 1.03388e-07 3.13996e-07 1.16594e-06 0.0005 
511 1 -1.25489e-05 -0.0111136 0.000499385 -0.000107537 7.19883e-05 -1.56335e-05 2.41153e-07 -2.13154e-08 4.3228e-08 8.00881e-08 -1.15185e-07 9.91804e-07 0.0005 
1144 1 -0.00802782 -0.0106668 0.000499679 -4.71893e-05 2.71845e-05 -1.78157e-06 1.38872e-07 4.7387e-08 1.1984e-07 -4.05466e-07 -1.37027e-07 1.2397e-06 0.0005 
353 1 -0.00577735 -0.0108794 0.000499611 -0.000279721 -0.000386395 6.16499e-05 2.05681e-07 -2.76126e-07 3.71026e-07 -2.44623e-07 5.97031e-08 1.00667e-06 0.0005 
1818 1 -0.00394101 -0.0105628 0.000499467 -9.34258e-05 -0.00010201 8.23465e-05 1.88415e-07 2.52754e-07 2.54824e-07 4.91965e-08 6.06181e-07 1.10837e-06 0.0005 
1873 1 -0.00258389 -0.010484 0.000499531 -0.000177041 -0.000109478 -1.99332e-06 1.86512e-07 3.31551e-07 -4.30929e-08 -3.94103e-08 5.83853e-07 1.08126e-06 0.0005 
2211 1 -0.000754785 -0.0104431 0.000499434 -0.000112255 3.64098e-05 4.81351e-06 -1.1554e-08 -2.4388e-07 2.73493e-08 -1.27719e-07 1.59271e-07 1.13087e-06 0.0005 
647 1 -0.00885812 -0.0099879 0.000499737 -4.37717e-05 -2.46651e-06 -7.36728e-06 1.09354e-07 6.8481e-09 -9.31259e-09 -2.80935e-07 -2.75802e-07 1.21009e-06 0.0005 
542 1 -0.00734083 -0.00994044 0.000499424 -4.38504e-05 1.75914e-05 -1.0245e-05 6.53244e-07 5.39014e-07 -2.01771e-07 -4.03695e-07 -1.60383e-07 9.78532e-07 0.0005 
1585 1 -0.00535724 -0.00993909 0.000499449 -3.40011e-05 -0.000147649 0.000120146 5.93624e-07 -1.55979e-07 1.9668e-07 -1.26259e-08 2.11173e-08 1.0129e-06 0.0005 
2142 1 -0.00325414 -0.00974231 0.000499393 -3.74543e-05 -4.59737e-06 0.000106291 2.36262e-07 1.23001e-07 -1.14992e-07 2.13831e-08 3.46514e-07 1.0393e-06 0.0005 
2090 1 -0.00148612 -0.00975954 0.000499806 9.4931e-05 0.000120428 -2.54475e-05 -9.70672e-08 -2.73508e-08 9.52527e-08 -3.80575e-07 1.91075e-07 1.06508e-06 0.0005 
2330 1 -0.00886406 -0.00898534 0.000499184 -4.88621e-05 1.40431e-05 -8.83758e-06 2.26992e-08 5.31756e-09 4.88126e-09 -3.06454e-07 -3.04822e-07 8.81555e-07 0.0005 
733 1 -0.00681316 -0.00907745 0.000499616 -6.51959e-05 -1.81743e-05 1.71894e-05 3.371e-07 3.82852e-08 1.63595e-07 -1.66106e-07 -8.22721e-08 9.72501e-07 0.0005 
1443 1 -0.00575398 -0.00889477 0.000499528 -8.92281e-05 -8.87345e-05 3.17741e-05 5.01703e-07 1.85109e-07 -1.21195e-07 2.41517e-07 -2.8974e-08 1.06201e-06 0.0005 
1221 1 -0.00475433 -0.00887336 0.000499504 -6.70777e-05 -6.81351e-05 0.000112719 2.22288e-07 3.82474e-08 9.56931e-08 4.11136e-07 4.45042e-08 1.06017e-06 0.0005 
388 1 -0.00320811 -0.00874351 0.000499719 2.39659e-05 -5.79427e-05 3.09276e-05 2.63207e-08 3.1874e-07 1.0483e-08 -1.4242e-08 1.32107e-07 1.03527e-06 0.0005 
823 1 -0.00235853 -0.00927087 0.000499711 -5.01843e-05 -8.43616e-05 -4.11982e-05 -1.93324e-07 1.98407e-07 2.09737e-07 -1.83258e-07 1.42755e-07 1.04133e-06 0.0005 
714 1 -0.00108584 -0.0088146 0.000499379 -3.52873e-05 7.2759e-05 4.69395e-05 -5.25972e-08 -2.17889e-07 1.21537e-07 -4.35327e-07 -1.71742e-07 1.08857e-06 0.0005 
462 1 -8.7544e-05 -0.00886768 0.000499403 -6.33037e-05 -1.49316e-05 8.6591e-06 -6.27802e-08 -8.19907e-08 4.17597e-08 -3.25848e-07 -2.60467e-07 9.01672e-07 0.0005 
529 1 -0.0102109 -0.00860036 0.000499764 -1.61258e-05 2.94046e-05 3.94847e-07 9.83177e-09 6.55671e-08 2.95709e-08 2.35457e-07 -5.72061e-07 1.28137e-06 0.0005 
359 1 -0.00934134 -0.00810707 0.000499576 -3.92262e-06 4.04874e-05 -1.16287e-05 1.06801e-07 1.18248e-07 -4.31786e-08 -2.24156e-07 -2.91172e-07 9.22565e-07 0.0005 
1505 1 -0.00808108 -0.00836339 0.000499697 -6.25163e-06 1.01025e-05 9.34556e-07 1.61023e-08 1.22236e-07 1.71305e-07 -3.38256e-07 -1.61398e-07 8.51093e-07 0.0005 
2252 1 -0.00614259 -0.00797168 0.000499703 -5.52978e-05 -3.20164e-05 4.64418e-05 2.76962e-07 1.35846e-07 3.15375e-08 1.05853e-07 8.5706e-09 9.50221e-07 0.0005 
2042 1 -0.00232672 -0.00827157 0.000499729 -6.99065e-05 -2.09796e-05 2.72228e-05 1.20311e-07 1.3584e-07 7.24202e-08 -3.42154e-07 -3.09292e-07 9.99335e-07 0.0005 
1539 1 -0.0108395 -0.00779302 0.000499714 -1.7829e-08 3.4086e-05 -6.33591e-06 7.04861e-08 -5.57114e-09 4.88224e-08 3.89038e-07 -4.40842e-07 1.48233e-06 0.0005 
986 1 -0.00813627 -0.00736503 0.000499752 6.63099e-05 3.33602e-05 1.20917e-05 5.21858e-08 1.15911e-07 -2.87493e-08 -4.29167e-07 -2.95289e-07 9.42656e-07 0.0005 
1847 1 -0.00710457 -0.00769899 0.0004994 -3.51237e-05 -1.04304e-05 -2.71729e-06 5.0645e-08 -2.62839e-09 6.99508e-08 -1.12918e-07 -1.29472e-07 9.82911e-07 0.0005 
1447 1 -0.00561272 -0.00712137 0.000499646 -7.87276e-05 -7.79914e-05 -4.20465e-05 -1.05125e-07 7.40043e-08 2.17375e-08 2.21575e-07 1.6588e-07 9.83572e-07 0.0005 
1848 1 -0.00461943 -0.00723626 0.000499538 -4.54655e-05 -6.13779e-05 1.5029e-05 7.72193e-08 5.79437e-07 -3.15574e-09 2.26435e-07 5.01769e-07 1.05359e-06 0.0005 
2417 1 -0.00359234 -0.00734769 0.00049956 -2.25002e-05 -7.81886e-05 -1.3408e-05 4.17167e-07 5.21594e-08 2.13459e-07 -1.51455e-07 1.0752e-07 1.02384e-06 0.0005 
1462 1 -0.00259341 -0.00730808 0.000499302 -9.21613e-05 -7.22431e-05 4.18274e-05 3.91103e-07 -3.07666e-08 8.94858e-08 -4.50393e-07 -4.23198e-07 9.95361e-07 0.0005 
46 1 -0.001312 -0.00784074 0.000499694 2.73271e-05 4.74038e-05 -2.22212e-05 3.38745e-08 -1.11664e-07 2.52393e-07 -5.02434e-07 -4.96097e-07 1.16058e-06 0.0005 
1432 1 -0.000191228 -0.00787342 0.000499391 -7.42422e-05 1.30856e-05 1.03528e-05 -1.21543e-07 -5.90171e-08 1.1452e-07 -2.3445e-07 -3.7745e-07 1.05293e-06 0.0005 
2195 1 -0.0115957 -0.00660388 0.000499545 1.55779e-05 2.67538e-06 -6.4388e-06 -5.47768e-08 1.25462e-08 1.94096e-08 6.88675e-07 -6.05165e-08 1.69212e-06 0.0005 
1429 1 -0.0105925 -0.00682403 0.000499797 -4.98694e-05 8.20338e-05 -7.09108e-06 2.81055e-08 6.46874e-08 -1.1632e-08 4.46824e-07 -1.24347e-07 9.99446e-07 0.0005 
551 1 -0.00959853 -0.00693356 0.000499591 -1.3795e-05 6.15565e-05 2.12166e-05 8.51426e-09 1.77346e-07 -9.85076e-09 -2.02314e-08 -1.68288e-07 9.40274e-07 0.0005 
1263 1 -0.00878424 -0.00635316 0.000499798 -1.33813e-05 3.21236e-05 -1.18984e-06 4.28651e-08 9.27998e-08 -4.07023e-08 -2.37853e-07 -1.63659e-07 9.60572e-07 0.0005 
490 1 -0.00778422 -0.00634564 0.000499512 1.14244e-05 -6.13161e-05 -2.01899e-07 5.65822e-08 -3.0324e-08 1.49452e-08 -2.10271e-07 -1.15864e-07 9.77232e-07 0.0005 
1485 1 -0.00647222 -0.00658776 0.000499676 2.43432e-05 -1.15308e-06 4.58036e-06 -1.57237e-07 -1.20384e-07 2.98695e-08 3.72813e-07 -7.24096e-08 9.87412e-07 0.0005 
74 1 -0.00405356 -0.0064024 0.000499564 -1.80172e-05 -8.84731e-05 3.12867e-05 -1.11214e-07 -3.03633e-07 -3.59042e-08 3.22377e-09 7.00239e-07 7.8345e-07 0.0005 
606 1 -0.0109675 -0.00581867 0.000499774 -5.4637e-05 -8.56493e-05 -1.303e-05 -8.28759e-08 1.32428e-08 1.87396e-07 6.04526e-07 4.75758e-08 1.13718e-06 0.0005 
1293 1 -0.00998646 -0.00601209 0.000499665 -2.68715e-05 1.53068e-05 -3.79831e-05 -3.75183e-08 2.63153e-07 -1.74807e-07 4.54906e-07 3.22462e-08 1.00796e-06 0.0005 
1248 1 -0.00701385 -0.00570807 0.00049973 -4.04826e-05 -0.000152445 1.24886e-05 2.70828e-07 1.205e-07 3.23456e-08 2.15133e-07 -1.85861e-08 9.87258e-07 0.0005 
1101 1 -0.00560747 -0.00601647 0.00049937 8.73035e-06 -0.000113362 2.85704e-05 5.59835e-08 -2.57074e-08 5.82854e-08 5.56918e-07 1.55434e-07 9.92908e-07 0.0005 
817 1 -0.00467776 -0.00561531 0.000499498 1.77902e-06 -3.80137e-05 2.40691e-05 -1.47902e-07 2.16997e-07 5.24459e-08 2.52801e-07 6.75376e-07 7.86517e-07 0.0005 
1969 1 -0.00335213 -0.00559031 0.000499371 -1.80468e-07 -2.30789e-06 2.84414e-05 -1.11896e-07 -1.97315e-07 -6.45663e-08 -8.33445e-07 -1.00826e-08 8.5521e-07 0.0005 
266 1 -0.00225299 -0.00609492 0.000499458 -2.32369e-05 1.06111e-05 3.05758e-05 -1.26047e-07 -2.39338e-07 2.22632e-07 -1.18655e-06 -5.71543e-07 8.94831e-07 0.0005 
1477 1 -0.000926413 -0.00625182 0.000499505 -3.63204e-05 6.31624e-05 1.02053e-06 -1.06003e-07 -6.70803e-09 3.69283e-07 -4.35228e-07 -5.44337e-07 1.25934e-06 0.0005 
740 1 -7.73375e-05 -0.00559844 0.000499608 -3.87379e-06 6.651e-05 -1.40161e-05 2.99954e-08 8.29064e-08 2.98519e-07 1.92579e-07 -4.08907e-07 9.61531e-07 0.0005 
1091 1 -0.0121722 -0.00548374 0.000499548 -1.07849e-05 1.02836e-06 -4.93658e-06 -2.02851e-08 1.15601e-08 -2.63618e-08 5.1143e-07 9.75399e-08 1.7486e-06 0.0005 
900 1 -0.011361 -0.00489942 0.000499616 9.26183e-06 -6.95835e-05 2.01602e-05 -5.22614e-08 2.97911e-08 -8.69166e-08 4.88442e-07 1.02526e-07 8.72316e-07 0.0005 
1315 1 -0.0103096 -0.00483361 0.000499567 -5.54809e-05 3.79766e-05 6.77297e-06 4.65599e-08 3.73207e-08 1.63024e-08 4.37747e-07 9.07317e-08 9.89779e-07 0.0005 
53 1 -0.00867055 -0.00528405 0.000499413 -5.31644e-06 -4.3177e-05 -1.23817e-05 3.26349e-08 2.59838e-07 -8.67116e-08 -1.06922e-07 5.23821e-08 9.97102e-07 0.0005 
1403 1 -0.00565077 -0.00495999 0.000499638 -1.16745e-05 -9.28436e-05 -7.01398e-06 -1.0888e-07 1.17567e-07 -5.57369e-08 6.72181e-07 1.64601e-07 9.57721e-07 0.0005 
2181 1 -0.00395614 -0.0047941 0.000499468 -6.39406e-05 -3.38254e-06 -4.19561e-06 6.69565e-08 -1.2604e-07 1.22106e-07 -5.35048e-07 -6.098e-08 6.57908e-07 0.0005 
152 1 -0.0025722 -0.00496485 0.000499772 0.000169292 -0.000225212 1.08589e-05 5.45405e-08 -2.60402e-07 1.06543e-07 -1.30483e-06 -3.5211e-07 1.01138e-06 0.0005 
262 1 -0.000965036 -0.0050999 0.00049958 3.02007e-05 4.82266e-05 3.3769e-05 -2.09684e-07 -2.44789e-07 1.11149e-07 -5.15272e-07 -3.0012e-07 1.20729e-06 0.0005 
890 1 -0.0125482 -0.00455726 0.000499714 -1.24056e-05 -8.99041e-06 -8.11083e-06 -1.47936e-09 -2.8547e-08 3.07187e-08 2.00014e-07 1.67233e-07 1.56637e-06 0.0005 
2 1 -0.0108904 -0.0040173 0.000499658 2.91008e-05 -8.66548e-05 -2.13872e-06 -1.8866e-08 8.19503e-09 3.54145e-08 3.73875e-07 4.78261e-08 9.13143e-07 0.0005 
12 1 -0.00938173 -0.00446112 0.000499644 8.15625e-06 -4.89837e-05 2.12088e-06 2.17208e-08 3.50402e-08 -7.73489e-09 7.20675e-08 5.34906e-08 9.80864e-07 0.0005 
1415 1 -0.00839128 -0.00432386 0.000499589 -2.78801e-05 -6.38639e-05 -2.92866e-06 3.16459e-09 5.21179e-08 3.26414e-08 -2.24311e-08 5.23052e-08 9.65902e-07 0.0005 
93 1 -0.00729587 -0.00469561 0.000499676 0.000599291 0.0021723 -4.9591e-06 2.87755e-08 8.77725e-08 -1.52986e-08 2.40172e-07 1.20015e-07 9.39925e-07 0.0005 
2064 1 -0.00595357 -0.00400725 0.000499334 -5.15046e-05 -8.42033e-05 -1.65334e-05 -2.48841e-08 3.90773e-08 -6.54264e-08 7.83737e-07 -6.74874e-10 9.44645e-07 0.0005 
1452 1 -0.00495445 -0.00403788 0.000499631 -8.87588e-05 -0.000122243 9.44922e-06 -1.65732e-08 2.71066e-08 5.69138e-08 1.15063e-07 -1.17684e-07 7.2172e-07 0.0005 
1459 1 -0.00317671 -0.00416806 0.000499456 -9.93855e-05 7.25994e-05 2.3023e-06 5.88579e-08 3.11997e-08 2.4708e-08 -1.24811e-06 -3.43255e-07 9.94078e-07 0.0005 
1507 1 -0.001738 -0.00441388 0.000499685 0.00010614 -0.000140148 -1.27098e-06 3.84409e-08 -2.98632e-08 2.84517e-08 -1.07272e-06 -2.66151e-07 1.1082e-06 0.0005 
2217 1 -0.000783477 -0.00411677 0.000499608 1.85549e-05 0.00010474 -1.54074e-05 -1.21346e-07 1.31856e-07 5.75607e-09 -3.74646e-07 9.5897e-11 1.18033e-06 0.0005 
982 1 -0.0128331 -0.00344581 0.000499666 2.72934e-05 7.8248e-06 3.56839e-06 9.31037e-08 6.13937e-08 -1.00725e-08 9.8703e-08 1.53635e-07 1.44679e-06 0.0005 
1544 1 -0.0099838 -0.00359564 0.000499816 -4.73321e-05 9.87657e-05 -1.22677e-05 1.66321e-08 3.91712e-08 2.86708e-08 1.57024e-07 -2.88432e-08 9.13441e-07 0.0005 
2007 1 -0.00898675 -0.00352061 0.000499747 -4.47407e-05 -5.48456e-05 1.82502e-05 4.16363e-08 2.15982e-07 -8.92618e-08 -1.65338e-08 -1.12456e-08 9.1211e-07 0.0005 
1617 1 -0.00781275 -0.00350132 0.000499459 -2.14574e-05 -2.39091e-05 3.62623e-06 3.87153e-09 1.0121e-07 -2.64135e-08 1.64975e-08 -7.63839e-08 9.56346e-07 0.0005 
230 1 -0.00402673 -0.00363255 0.000499632 -9.75457e-05 -5.16324e-05 1.28513e-05 -4.40597e-08 1.3396e-07 7.1668e-09 -5.63336e-07 -3.3891e-07 7.03209e-07 0.0005 
1067 1 -0.00239706 -0.00354217 0.000499635 -1.08719e-05 -5.07114e-05 2.12696e-05 1.45739e-07 1.25317e-07 4.43166e-08 -1.26246e-06 -2.71387e-07 1.01755e-06 0.0005 
9 1 -0.0130664 -0.00247351 0.000499646 -8.32203e-07 -8.5807e-06 5.94174e-06 4.12026e-08 1.10392e-08 1.89104e-08 1.23484e-07 -3.25785e-08 1.54658e-06 0.0005 
2406 1 -0.0116626 -0.00306289 0.000499495 -3.21967e-05 5.61711e-06 -1.55016e-05 -1.75746e-08 4.72652e-08 -1.76847e-08 2.23773e-07 1.27012e-09 9.43614e-07 0.0005 
178 1 -0.00953419 -0.00267993 0.000499687 2.50126e-05 0.000129148 -1.44784e-05 2.52387e-08 1.22787e-07 -3.26743e-08 -1.51672e-08 -1.57774e-07 9.12137e-07 0.0005 
1238 1 -0.0085296 -0.00263148 0.000499594 2.45395e-06 -6.84009e-05 -1.8888e-05 -4.84148e-08 7.87056e-08 -2.70875e-08 -7.56223e-08 -2.08004e-07 9.33168e-07 0.0005 
1610 1 -0.00702339 -0.00270672 0.000499784 -0.000125596 -0.000289306 2.22752e-05 -7.29826e-08 -7.54784e-08 6.81673e-08 1.83868e-07 -1.59184e-07 9.57946e-07 0.0005 
391 1 -0.0060401 -0.00288848 0.000499794 -8.42857e-05 -0.000342538 -1.18088e-05 -6.84212e-08 -1.15856e-07 -9.68693e-08 3.59307e-07 -1.44873e-07 9.59182e-07 0.0005 
1178 1 -0.00505217 -0.00304273 0.000499761 -2.6301e-05 -0.000112658 1.5967e-05 1.40501e-09 -1.89879e-07 7.50055e-08 4.48384e-08 -3.99008e-07 8.69983e-07 0.0005 
1798 1 -0.00415523 -0.00260104 0.000499661 -2.58919e-06 -5.28304e-05 -1.81448e-05 -4.98514e-08 -3.63004e-08 -3.86958e-08 -4.90033e-07 -7.38367e-07 8.25205e-07 0.0005 
619 1 -0.00324134 -0.00300643 0.000499738 -3.06625e-05 -6.57138e-05 -3.3246e-05 1.14891e-07 1.789e-07 -7.42037e-08 -9.95263e-07 -3.44308e-07 9.44441e-07 0.0005 
38 1 -0.00237107 -0.00251426 0.000499628 0.000192946 -0.000513093 3.09419e-06 2.21716e-07 1.23092e-07 9.77979e-08 -1.14832e-06 -1.31407e-07 9.71048e-07 0.0005 
736 1 -0.000798602 -0.00294403 0.000499724 -3.29493e-05 -7.11968e-05 1.2221e-05 6.98988e-08 2.20594e-07 6.74998e-08 -4.29356e-07 -3.59836e-08 1.09512e-06 0.0005 
186 1 -0.0124339 -0.00169932 0.000499381 -6.67441e-05 1.78565e-05 1.30326e-05 -8.9344e-08 1.45848e-07 1.44458e-08 1.96981e-07 -1.84899e-07 1.02968e-06 0.0005 
459 1 -0.0114417 -0.0020879 0.000499665 -7.0784e-06 -3.13491e-06 6.01102e-07 3.47436e-08 3.21884e-08 -1.78276e-08 1.79525e-07 -2.16012e-07 9.46209e-07 0.0005 
866 1 -0.0104727 -0.00233476 0.000499703 1.3147e-06 1.57561e-05 -2.62625e-06 -4.90748e-08 -7.0603e-08 -7.64547e-08 1.22047e-07 -2.53949e-07 8.73858e-07 0.0005 
1411 1 -0.00937733 -0.00168769 0.000499619 -8.97959e-05 -0.00016104 8.44098e-07 1.63376e-08 1.01626e-07 -1.90554e-08 -8.14533e-08 -4.96923e-07 9.54957e-07 0.0005 
1278 1 -0.00774383 -0.00201323 0.000499614 -7.24618e-05 -5.4795e-05 1.01798e-06 5.4755e-09 1.61418e-08 -1.89026e-08 3.52163e-09 -2.67267e-07 9.92479e-07 0.0005 
62 1 -0.00597135 -0.00188669 0.00049975 -4.41347e-05 -9.45619e-05 2.27949e-05 1.76808e-07 2.16675e-07 -1.554e-08 2.58562e-07 -2.73501e-07 9.74617e-07 0.0005 
1669 1 -0.00498332 -0.00204069 0.000499601 -1.44936e-05 -9.53782e-05 1.34583e-05 -6.09222e-09 -1.41539e-08 -5.05559e-08 -6.32534e-08 -5.58851e-07 8.23849e-07 0.0005 
695 1 -0.00126434 -0.0019732 0.000499799 -0.00137288 -0.00036742 -1.48555e-07 -4.41814e-07 -6.85765e-08 -8.85543e-10 -6.22622e-07 -1.07983e-07 1.08451e-06 0.0005 
1530 1 -0.0132965 -0.00119341 0.000499808 -8.1431e-05 -5.17189e-05 -1.17116e-05 -1.4294e-07 1.38934e-07 -8.53843e-08 1.28319e-07 -1.75154e-07 1.62395e-06 0.0005 
1654 1 -0.0107119 -0.00136395 0.000499525 -6.76896e-05 -1.75373e-05 -2.42103e-06 -1.00511e-08 4.68365e-08 -3.29393e-08 9.53029e-08 -3.87082e-07 9.53456e-07 0.0005 
299 1 -0.0076779 -0.00101542 0.000499799 -7.57482e-05 -6.91962e-05 -2.68669e-06 -6.15026e-08 -7.33026e-08 2.23221e-08 8.25051e-08 -2.56074e-07 1.06792e-06 0.0005 
98 1 -0.00667909 -0.00106344 0.000499298 -8.74558e-05 -9.06204e-05 -1.21683e-06 4.53462e-08 5.54749e-08 1.93019e-08 3.12629e-07 -1.71106e-07 1.02133e-06 0.0005 
1060 1 -0.00391268 -0.00156489 0.00049937 -0.000196372 -0.000279496 1.80477e-05 -1.08339e-08 -6.17248e-08 2.71277e-08 -5.28591e-07 -6.616e-07 8.75079e-07 0.0005 
781 1 -0.00214638 -0.00125904 0.000499733 -0.000144563 -6.43264e-05 2.285e-05 -1.29159e-07 7.87703e-09 2.42457e-07 -9.04843e-07 -1.36066e-07 9.89914e-07 0.0005 
1955 1 -0.000335389 -0.0014823 0.000499525 2.57874e-05 3.86083e-05 -3.97975e-05 2.17008e-07 1.80108e-07 1.53534e-08 -2.89825e-07 -2.4472e-07 1.04037e-06 0.0005 
967 1 -0.0133488 -0.000189418 0.000499774 4.15268e-06 2.90944e-05 -6.36549e-06 2.54783e-08 8.93037e-08 4.11104e-09 4.96645e-08 -1.9541e-07 1.61162e-06 0.0005 
1675 1 -0.0124487 -0.00062466 0.000499637 -1.13704e-05 1.62721e-05 -4.35501e-06 4.63552e-08 7.50922e-08 1.53928e-08 1.14175e-07 -2.50415e-07 1.03211e-06 0.0005 
2125 1 -0.0113978 -3.37234e-05 0.000499747 -0.000112801 -7.88282e-05 -2.45582e-05 -7.71521e-08 2.52899e-08 -2.7323e-08 -7.84564e-08 -2.75839e-07 9.98293e-07 0.0005 
2169 1 -0.00952717 -0.000695909 0.000499655 -3.59549e-05 -7.6339e-05 -2.70564e-05 -2.34613e-08 1.23665e-07 6.41402e-08 -8.78454e-08 -6.41348e-07 9.52533e-07 0.0005 
6577 1 -0.00857966 -0.00037704 0.000499333 -3.03418e-06 -4.3158e-05 2.56086e-06 2.2536e-08 5.94758e-08 3.42513e-08 1.20431e-07 -3.60071e-07 9.90153e-07 0.0005 
6638 1 -0.00682671 -7.49625e-05 0.000499583 -4.52394e-05 -0.000107644 3.77832e-05 6.9352e-08 1.75602e-07 9.64121e-09 2.54127e-07 -1.10356e-07 7.94769e-07 0.0005 
1600 1 -0.00576812 -0.00065206 0.000499549 -6.83598e-05 -6.61386e-05 -1.58952e-05 3.28617e-08 1.3745e-07 3.05194e-09 3.26886e-07 -2.43067e-07 1.00786e-06 0.0005 
5393 1 -0.0049464 -3.79089e-05 0.000499727 0.000808698 -0.00084477 -9.0939e-06 -1.14104e-08 7.01047e-08 2.16624e-08 -1.66195e-07 -5.01758e-07 9.10036e-07 0.0005 
108 1 -0.0032794 -0.000743429 0.000499628 -2.43723e-05 -0.000353807 3.53707e-05 -1.86686e-08 -6.77191e-08 -7.05464e-08 -7.34773e-07 -4.19875e-07 9.69293e-07 0.0005 
288 1 -0.00179767 -0.000321947 0.00049953 -0.000119969 -2.17866e-05 -5.02162e-05 -9.20555e-08 -1.42752e-08 3.35106e-08 -7.14116e-07 -2.46637e-07 9.94204e-07 0.0005 
1934 1 -0.000393059 -0.00048397 0.000499513 -0.000202727 -2.57647e-05 -2.44348e-05 1.43282e-07 1.57067e-07 7.42151e-09 -2.47879e-07 -2.23853e-07 1.05725e-06 0.0005 
1180 1 -0.00374436 -0.0128145 0.00092296 -9.18389e-05 -2.13841e-05 -7.85456e-05 -1.89408e-07 2.96395e-08 5.75482e-07 -2.65035e-07 1.98887e-07 2.06733e-06 0.0005 
1047 1 -0.00271287 -0.0130719 0.000939825 -8.57417e-05 -3.62451e-05 -7.70433e-05 1.76406e-08 2.78882e-07 8.49061e-08 -2.11334e-08 2.03843e-07 2.15513e-06 0.0005 
2053 1 -0.00467748 -0.0125041 0.000743495 -1.6976e-06 -1.66509e-05 1.26166e-05 2.71946e-07 -7.46849e-08 3.65569e-07 -3.15869e-07 1.9552e-07 1.85619e-06 0.0005 
427 1 -0.00477346 -0.011014 0.00116679 -0.000194285 -3.05694e-05 0.000113382 1.37563e-07 1.58979e-07 2.17154e-07 -7.44909e-08 3.23014e-07 1.99304e-06 0.0005 
2081 1 -0.00166435 -0.0106868 0.000834351 -0.000204875 -6.63894e-06 -5.95738e-05 -1.57798e-07 -4.41446e-08 2.00878e-07 -1.47415e-08 4.00786e-07 1.70994e-06 0.0005 
1375 1 -0.0081142 -0.00948137 0.000935391 -7.42777e-05 2.01645e-05 -2.99114e-05 1.60171e-07 1.28936e-07 3.06429e-08 -4.29987e-07 -2.38628e-07 1.80795e-06 0.0005 
1658 1 -0.006349 -0.0100598 0.00053081 -7.2922e-05 -0.000337116 9.282e-05 6.92295e-07 4.43535e-07 3.56488e-07 -1.94933e-07 -1.02814e-07 1.07782e-06 0.0005 
110 1 -0.00455674 -0.0100411 0.00108918 -2.31309e-05 -5.43419e-06 0.000176251 3.81973e-07 -1.49914e-07 3.24328e-07 1.07984e-07 2.53802e-07 1.83348e-06 0.0005 
1487 1 -0.00224173 -0.00992008 0.00125096 -0.000253758 -9.04303e-06 2.41916e-05 1.6488e-07 -2.33844e-07 -6.45165e-08 -1.41219e-07 3.2082e-07 1.99118e-06 0.0005 
2461 1 -0.00958348 -0.0092949 0.00111983 -3.86988e-05 2.0748e-05 -1.97207e-05 3.24045e-08 1.31798e-08 1.89052e-08 -1.04938e-08 -4.52797e-07 2.0899e-06 0.0005 
1750 1 -0.0039655 -0.0092411 0.000991396 -4.29453e-05 2.35069e-05 0.000344572 3.12852e-07 -6.50265e-08 -5.51294e-07 2.09537e-07 1.91311e-07 2.05751e-06 0.0005 
243 1 -0.00696479 -0.00838927 0.00120894 4.4921e-06 -4.40408e-05 1.75165e-05 8.43233e-08 8.99559e-08 2.41473e-07 -1.45606e-07 4.73535e-08 2.28497e-06 0.0005 
948 1 -0.00518307 -0.00801401 0.000777295 -4.72458e-05 -6.18481e-05 6.02915e-05 4.06081e-07 5.46735e-07 1.79479e-07 3.10917e-07 2.87253e-07 1.57507e-06 0.0005 
793 1 -0.00403083 -0.008219 0.000718176 -2.00183e-05 -5.40308e-05 7.63255e-05 1.60492e-07 3.62067e-07 3.63501e-07 1.82773e-07 1.89816e-07 1.15519e-06 0.0005 
1694 1 -0.00169985 -0.00852921 0.00123456 -8.59901e-05 4.78467e-05 7.62039e-05 -5.30418e-08 -2.73806e-07 2.92718e-07 -3.99308e-07 -2.66511e-07 1.90854e-06 0.0005 
842 1 -0.0100258 -0.00764221 0.00106071 -1.43219e-06 5.87952e-05 1.28461e-05 1.72525e-07 1.24091e-07 4.17663e-08 1.09751e-07 -3.75836e-07 1.83428e-06 0.0005 
239 1 -0.00900572 -0.00741968 0.00114295 8.0014e-06 5.9215e-05 -4.8034e-05 1.68616e-07 2.97145e-07 -2.49042e-07 -4.0266e-07 -2.89209e-07 2.08207e-06 0.0005 
13 1 -0.00305041 -0.00786726 0.00119028 -0.000176498 -9.68484e-05 0.000145405 8.12069e-08 9.15707e-08 7.46321e-08 -2.27431e-07 -4.02241e-07 2.16534e-06 0.0005 
1059 1 -0.00717933 -0.00674274 0.00118928 5.82871e-06 2.05666e-06 7.99202e-06 -3.57202e-08 1.94703e-08 -6.16104e-08 -2.63489e-08 -1.29324e-07 2.10999e-06 0.0005 
830 1 -0.00488432 -0.00642533 0.00105503 5.14347e-06 -0.00014893 6.12524e-05 4.55518e-08 -6.87472e-08 -7.42613e-08 2.89118e-07 6.07286e-07 1.62284e-06 0.0005 
515 1 -0.00310894 -0.00650934 0.000807882 -4.38904e-05 -4.05162e-05 5.17058e-05 1.23415e-07 -2.44052e-07 1.00757e-07 -7.53937e-07 -2.00395e-07 1.30751e-06 0.0005 
2336 1 -0.001677 -0.00691094 0.000540424 -4.26597e-05 -1.28297e-06 6.13201e-05 1.53545e-07 2.27741e-08 3.37356e-07 -6.30466e-07 -5.70896e-07 8.62821e-07 0.0005 
2421 1 -0.000547553 -0.0070578 0.000953812 -3.96335e-05 6.69488e-05 -2.00104e-05 4.69414e-08 1.91182e-07 1.89309e-07 -3.49928e-07 -5.3123e-07 2.06215e-06 0.0005 
1645 1 -0.00625487 -0.00560967 0.00114291 -4.67788e-05 -0.000163019 6.45032e-06 2.75183e-07 3.36935e-07 4.15719e-08 6.7979e-07 6.00622e-09 2.10528e-06 0.0005 
100 1 -0.00401334 -0.00568611 0.00124289 4.16344e-06 -1.67648e-05 6.94675e-05 1.62501e-07 4.03079e-07 -7.07035e-08 -1.14979e-07 6.41265e-07 1.78793e-06 0.0005 
2208 1 -0.00153348 -0.00569539 0.00106658 2.04958e-05 -7.68745e-06 3.57743e-05 -2.0353e-07 -1.80736e-08 5.79086e-07 -7.92754e-07 -5.01164e-07 2.17519e-06 0.0005 
1899 1 -0.0103883 -0.00548427 0.00125426 -6.11914e-06 1.1359e-05 2.61063e-05 7.28907e-08 8.11425e-08 5.81239e-08 6.11477e-07 1.13183e-07 2.36133e-06 0.0005 
220 1 -0.00939592 -0.0055257 0.00114305 -2.59963e-05 -6.85914e-05 -4.44862e-05 1.05381e-07 2.05106e-07 -5.02723e-08 1.85112e-07 7.22258e-08 2.19327e-06 0.0005 
1211 1 -0.00784158 -0.00549253 0.00101728 -6.1288e-05 -8.68066e-05 2.03424e-05 1.94065e-08 3.49149e-08 4.00816e-08 -7.77133e-08 7.88949e-10 1.70124e-06 0.0005 
565 1 -0.00329414 -0.00482076 0.00124805 -0.000128322 -7.56916e-05 3.55794e-05 3.086e-07 -1.46611e-07 2.41698e-07 -9.70016e-07 -2.20487e-07 1.86544e-06 0.0005 
2300 1 -0.01182 -0.00397907 0.000867068 -6.13567e-05 2.84276e-05 -4.4588e-05 -1.34611e-08 7.90555e-08 1.66562e-08 2.40292e-07 1.78427e-07 1.67089e-06 0.0005 
1986 1 -0.00646739 -0.00463469 0.00108368 -3.75203e-05 -0.000150015 -5.34664e-05 6.52315e-08 1.4722e-07 -8.42645e-08 7.38405e-07 7.50874e-08 1.89435e-06 0.0005 
1236 1 -0.00462146 -0.00463587 0.00122822 -0.00011514 -0.000189664 -1.33205e-05 -1.15e-08 -2.88292e-07 5.82552e-08 -1.00645e-07 -2.47859e-08 1.59127e-06 0.0005 
483 1 -0.00252328 -0.00418404 0.00125576 -0.000125765 -0.0001363 -1.28453e-05 -1.69427e-08 1.67805e-07 3.04466e-07 -1.7486e-06 -4.56165e-07 2.51099e-06 0.0005 
696 1 -0.00686981 -0.00370528 0.000761196 -8.09314e-05 -0.000199514 9.64569e-06 -3.45716e-08 4.12986e-08 -4.37731e-08 3.98175e-07 1.8511e-08 1.24167e-06 0.0005 
704 1 -0.00148706 -0.00353923 0.000913713 -2.87953e-05 -0.000111554 -3.11717e-05 3.10451e-08 8.67124e-08 7.38797e-08 -7.47392e-07 -1.02012e-07 1.70196e-06 0.0005 
2160 1 -7.77031e-05 -0.00354804 0.00092072 0.000133835 -7.73098e-05 0.000128106 -1.30572e-08 1.56828e-07 -8.04035e-08 -1.27122e-07 -1.90178e-07 1.61089e-06 0.0005 
532 1 -0.0107926 -0.0031486 0.000984394 -8.02828e-06 -3.5181e-05 -9.5797e-05 -2.4929e-08 9.23103e-08 -1.98277e-08 2.72795e-07 -6.34771e-08 1.80265e-06 0.0005 
1201 1 -0.00781617 -0.00277417 0.00118543 -6.31517e-05 -8.33632e-05 9.78377e-05 4.22882e-09 9.04151e-08 -3.69665e-08 -1.24903e-07 -2.43715e-07 2.22792e-06 0.0005 
2224 1 -0.00854993 -0.00179728 0.00104995 -8.98247e-05 -0.000114685 2.44141e-05 6.13463e-08 1.71355e-07 -8.22608e-08 -3.329e-08 -2.98696e-07 1.62225e-06 0.0005 
1596 1 -0.00696652 -0.00181244 0.0010953 -8.6849e-05 -0.000126485 -1.90093e-05 2.23058e-07 -1.22013e-07 -1.20573e-07 1.44992e-07 -1.6173e-07 1.6347e-06 0.0005 
2261 1 -0.00296978 -0.00175827 0.000768858 -5.14203e-05 -0.000467367 -0.000381598 5.97127e-08 1.35673e-07 5.6782e-08 -9.49413e-07 -2.67173e-07 1.44068e-06 0.0005 
48 1 -0.00053853 -0.00210607 0.0012539 -0.000168027 1.57504e-05 -0.000126435 1.58245e-07 1.97643e-07 1.48651e-07 -3.47125e-07 -7.47785e-08 2.46068e-06 0.0005 
78 1 -0.0116471 -0.00115113 0.000781829 -5.19771e-05 -1.41007e-05 2.89249e-06 6.59473e-09 1.53513e-08 -2.8872e-08 1.38268e-07 -3.28147e-07 1.51184e-06 0.0005 
367 1 -0.0100442 -0.00116381 0.00121617 -1.76381e-05 -8.85965e-05 -3.59685e-05 -6.48554e-08 3.06369e-08 2.91641e-08 -5.78037e-08 -6.28654e-07 2.24222e-06 0.0005 
5 1 -0.00507453 -0.00117594 0.000992791 -0.00018202 -0.000167065 2.01874e-05 -5.17644e-08 -7.07028e-09 1.03319e-07 1.89035e-08 -5.41097e-07 1.72811e-06 0.0005 
1357 1 -0.00116791 -0.00102986 0.000818257 -0.000122512 -0.000100513 -0.000199 -1.64286e-07 -9.16415e-08 -3.426e-08 -6.58342e-07 -3.7846e-07 1.72713e-06 0.0005 
2095 1 -0.0104742 -0.000400882 0.000623452 -5.06356e-05 -4.12639e-05 -3.37723e-06 -1.86453e-08 1.1373e-07 -1.96977e-08 3.65903e-08 -4.4518e-07 1.10855e-06 0.0005 
42 1 -0.00421197 -0.000686291 0.000870656 -0.000170006 -0.000135632 -7.0794e-05 -5.29323e-08 -6.2525e-08 -1.13824e-09 -3.56421e-07 -8.30849e-07 1.56047e-06 0.0005 
548 1 -0.00253234 -0.000554054 0.00113655 -6.25831e-07 -0.000210937 -1.66592e-05 -1.77253e-07 -1.40533e-07 -1.14164e-07 -9.2649e-07 -1.79973e-07 2.33115e-06 0.0005 
805 1 -0.00293937 -0.0130224 0.00191222 -0.0002138 2.89245e-05 -0.000110944 -6.47991e-07 5.09026e-07 2.92165e-07 -7.4086e-08 1.53681e-07 3.15179e-06 0.0005 
643 1 -0.00198784 -0.0132016 0.00161548 -5.55288e-05 -1.07142e-05 -0.000116773 4.44842e-07 -1.84913e-07 1.82383e-08 1.50143e-07 1.52418e-07 2.936e-06 0.0005 
1951 1 -0.000908317 -0.0133192 0.00130887 3.74396e-05 2.42693e-06 3.5692e-05 5.1634e-07 1.97569e-07 -3.32512e-07 2.66584e-07 1.23369e-07 2.60413e-06 0.0005 
1971 1 -0.00013805 -0.0126725 0.00125615 0.000171227 -0.000138201 -0.000121162 1.85195e-07 4.69504e-07 3.95527e-07 1.98912e-07 -6.59929e-08 2.21361e-06 0.0005 
2416 1 -0.000184203 -0.0133487 0.00199756 4.3597e-05 -4.52501e-05 4.81373e-06 6.69532e-08 -6.18102e-08 1.2532e-07 1.72511e-07 2.39051e-08 3.13184e-06 0.0005 
2017 1 -0.0057079 -0.0119656 0.0012689 -9.60404e-05 -0.00040191 7.77189e-05 2.4967e-07 -7.70215e-07 4.1872e-08 -3.48952e-07 8.44164e-08 2.3911e-06 0.0005 
527 1 -0.0043609 -0.0126177 0.00168508 -7.7829e-05 -8.82646e-05 5.29502e-06 9.49944e-08 -1.30343e-07 8.47894e-07 -2.55323e-07 1.81921e-07 2.8084e-06 0.0005 
2327 1 -0.00336355 -0.0120733 0.00147534 -0.000208714 -0.00015815 2.99645e-06 3.88248e-08 3.93012e-07 -1.96011e-07 -1.49194e-07 4.10321e-07 2.65258e-06 0.0005 
886 1 -0.00238378 -0.0122683 0.00143471 -0.000202419 -0.000104305 0.000111366 -2.9686e-08 1.05426e-07 -2.01437e-07 6.54436e-08 4.0163e-07 2.49319e-06 0.0005 
848 1 -0.00141858 -0.0124609 0.00125998 -6.97145e-05 1.81481e-05 6.35071e-05 2.01102e-08 2.89148e-08 -3.76964e-08 2.46453e-07 3.28567e-07 2.6098e-06 0.0005 
125 1 -0.00067604 -0.0119404 0.0016807 7.1678e-05 -0.000120092 -0.00016427 1.44794e-07 4.67429e-07 -5.2314e-07 1.18979e-07 2.44871e-07 2.95953e-06 0.0005 
2456 1 -0.00683756 -0.0114663 0.00140278 -0.000307767 0.000555058 0.000108727 5.21504e-07 4.8497e-08 -2.12246e-06 -3.23089e-07 6.07839e-08 2.43961e-06 0.0005 
461 1 -0.00540024 -0.0112592 0.00190627 -0.000183602 -0.000119381 6.23426e-05 3.41329e-07 -3.53427e-07 1.53608e-07 -1.52772e-07 2.12643e-07 3.03053e-06 0.0005 
2263 1 -0.00447834 -0.0116456 0.00188694 -0.000146116 -0.000136505 -2.62058e-05 2.6325e-07 -1.8423e-07 -2.00603e-07 -1.15753e-07 3.19281e-07 3.00334e-06 0.0005 