ITEM: TIMESTEP
110000
ITEM: NUMBER OF ATOMS
10000
ITEM: BOX BOUNDS mm mm mm
-0.015 0.015
-0.015 0.015
-0.001 0.0554
ITEM: ATOMS id type x y z vx vy vz fx fy fz f_dragforce[1] f_dragforce[2] f_dragforce[3] radius 
1359 1 -0.00148123 -0.0132677 0.000499687 2.11041e-05 2.85266e-06 -8.39345e-07 -1.68526e-07 -5.70188e-08 5.1783e-08 -6.45384e-07 5.70369e-08 1.83151e-06 0.0005 
637 1 -0.00302084 -0.0122332 0.00049958 2.5682e-06 -1.43946e-05 -1.88948e-06 -4.52392e-08 4.30064e-08 3.05721e-08 -1.09213e-06 -5.32542e-07 9.06889e-07 0.0005 
1496 1 -0.00204291 -0.0124407 0.000499653 5.94172e-05 2.5549e-05 7.2866e-06 -1.02e-08 -4.35087e-08 5.52163e-08 -7.33536e-07 -1.38602e-07 1.2824e-06 0.0005 
502 1 -0.000760862 -0.0125624 0.000499573 4.47447e-05 -0.000143529 -2.01312e-05 3.07518e-07 -1.21381e-07 8.58196e-08 -3.80519e-07 9.68183e-08 1.23531e-06 0.0005 
1195 1 -0.00712098 -0.0110895 0.00049962 -7.03918e-06 2.03873e-05 5.09366e-06 1.05952e-07 7.37101e-08 -2.26613e-09 -6.42141e-09 -7.70644e-07 9.56437e-07 0.0005 
1356 1 -0.00633921 -0.0117489 0.000499681 -1.69936e-06 8.19194e-06 5.36137e-07 2.49075e-08 -2.11993e-09 -1.08676e-08 -2.31843e-07 -9.52435e-07 9.52475e-07 0.0005 
939 1 -0.00515926 -0.0116598 0.000499555 -1.16093e-05 1.1781e-05 -1.06688e-05 -1.16505e-07 -8.40766e-08 -7.63004e-08 -7.59551e-07 -1.07484e-06 7.40998e-07 0.0005 
1758 1 -0.00415931 -0.0116647 0.000499795 -5.5931e-05 -0.000228503 1.82998e-05 -1.20898e-08 -9.02628e-08 7.71736e-08 -1.09993e-06 -9.4211e-07 8.86107e-07 0.0005 
656 1 -0.00321494 -0.0112525 0.000499426 -3.4088e-05 -3.56902e-05 -1.44186e-05 -1.57264e-07 -1.06567e-07 -6.36897e-08 -8.36978e-07 -7.23073e-07 1.1596e-06 0.0005 
758 1 -0.00220494 -0.011454 0.00049968 -0.000113955 3.08716e-05 -1.17795e-05 2.68501e-07 4.12785e-08 1.27663e-07 -5.2456e-07 -2.83906e-07 1.19828e-06 0.0005 
319 1 -0.00114738 -0.0115321 0.000499809 -0.000162429 -0.000548518 -4.62456e-07 -1.10079e-07 2.50076e-08 -8.15694e-10 -1.64333e-07 -1.98227e-08 1.21574e-06 0.0005 
1144 1 -0.00802731 -0.0106672 0.000499729 -7.3141e-06 2.67877e-05 1.04812e-05 1.90574e-09 5.11107e-08 7.19307e-08 3.05814e-07 -4.28457e-07 1.24522e-06 0.0005 
353 1 -0.00579229 -0.0108861 0.000499555 -5.22024e-05 -4.40356e-05 -4.8192e-05 5.96215e-08 5.46289e-09 8.64251e-09 -6.1523e-07 -1.10888e-06 7.47262e-07 0.0005 
1818 1 -0.00394087 -0.0105651 0.000499689 -0.000103373 -0.000154562 2.24456e-05 -1.38913e-07 -1.18605e-07 -4.08887e-08 -8.42421e-07 -8.0405e-07 1.15888e-06 0.0005 
1873 1 -0.00258428 -0.0104767 0.0004996 2.76589e-05 -3.38341e-05 1.14498e-05 -8.79437e-08 -2.38253e-07 -1.22187e-07 -4.86438e-07 -2.9261e-07 1.13456e-06 0.0005 
2211 1 -0.000747079 -0.0104223 0.000499558 7.27768e-05 0.000365509 3.26761e-05 3.76581e-08 1.40377e-08 -2.25427e-07 -3.92177e-08 1.39805e-07 1.19958e-06 0.0005 
647 1 -0.00886346 -0.00998308 0.000499778 -2.03321e-05 1.10354e-05 1.40672e-05 3.50041e-08 8.90668e-08 -7.32551e-08 3.40011e-07 -2.96245e-07 1.26484e-06 0.0005 
542 1 -0.00734342 -0.00993801 0.000499438 2.28476e-05 6.14678e-05 4.96012e-05 8.08711e-08 8.93982e-08 7.33948e-08 -4.15203e-08 -1.31511e-07 9.58711e-07 0.0005 
1585 1 -0.00535895 -0.00993714 0.00049958 -3.24342e-05 -2.9095e-05 6.93835e-05 -8.91383e-08 3.40778e-08 -8.95227e-08 -8.66522e-07 -9.57551e-07 8.95833e-07 0.0005 
2142 1 -0.00323328 -0.00971624 0.000499533 6.58855e-05 7.92965e-05 -1.63325e-05 -2.37022e-07 -3.52698e-07 -5.92969e-08 -4.47031e-07 6.65013e-08 1.11744e-06 0.0005 
2090 1 -0.00148137 -0.00974355 0.000499806 3.26022e-05 0.000164388 -1.57759e-05 2.96381e-07 2.57924e-07 -8.83335e-08 -1.59218e-07 1.61891e-07 1.17067e-06 0.0005 
2330 1 -0.00886454 -0.00898293 0.000499334 2.13702e-05 3.58211e-05 1.58039e-05 1.3468e-08 -1.1803e-07 -5.02454e-08 3.21858e-07 2.01921e-07 8.21255e-07 0.0005 
733 1 -0.00688635 -0.00904874 0.00049974 0.000219178 -4.44666e-06 -3.47405e-05 2.2857e-07 5.97858e-08 4.6662e-10 -4.37055e-07 4.35737e-07 9.17578e-07 0.0005 
1443 1 -0.00574691 -0.00891238 0.000499582 5.85365e-05 -4.73998e-05 2.36852e-05 9.30978e-08 3.53787e-07 6.50061e-08 -7.02768e-07 -1.95266e-08 9.8527e-07 0.0005 
1221 1 -0.00474809 -0.0088697 0.000499499 3.03318e-05 -2.06536e-06 4.04178e-05 2.64074e-08 1.11613e-07 -1.27087e-08 -6.97575e-07 -1.6744e-07 9.84142e-07 0.0005 
388 1 -0.00319379 -0.00871099 0.00049979 3.75151e-05 -0.000137554 -1.73189e-05 1.44294e-07 2.00164e-07 1.14464e-07 -2.92178e-07 3.99455e-07 1.11392e-06 0.0005 
823 1 -0.00234572 -0.00924073 0.000499794 0.00016363 0.000204861 -4.22745e-05 -1.14026e-07 -6.80077e-07 -1.91349e-07 -2.24142e-07 3.46431e-07 1.13004e-06 0.0005 
714 1 -0.00108711 -0.00882021 0.000499566 -1.24159e-05 8.51544e-06 -2.21269e-05 -6.26725e-08 7.47774e-08 -2.11197e-08 -7.42322e-08 3.25501e-07 1.19489e-06 0.0005 
462 1 -8.86287e-05 -0.00887175 0.000499652 -4.85838e-06 0.000152161 -9.76916e-06 -2.84655e-09 1.07014e-07 3.9055e-08 -5.82572e-08 4.05406e-07 1.12912e-06 0.0005 
529 1 -0.010212 -0.00859902 0.000499745 -1.2677e-05 8.50158e-06 -3.75053e-06 1.34374e-07 -6.94512e-08 -6.14654e-08 4.10637e-08 -2.98501e-07 1.10232e-06 0.0005 
359 1 -0.00934291 -0.00810486 0.000499593 -3.33008e-05 3.24284e-05 3.25505e-05 4.29153e-08 1.61246e-08 -8.5177e-08 5.6397e-07 1.83181e-07 7.79005e-07 0.0005 
1505 1 -0.0081074 -0.00832991 0.000499649 1.00601e-05 3.55941e-05 3.61659e-05 -1.52076e-07 1.17876e-07 1.59901e-07 -2.61357e-08 5.27897e-07 6.82068e-07 0.0005 
2252 1 -0.00618897 -0.00800595 0.000499636 2.12515e-05 -0.000102596 7.66552e-05 -5.36496e-07 1.16483e-07 2.9998e-07 -6.95645e-07 6.12764e-07 8.12094e-07 0.0005 
2042 1 -0.00231115 -0.00824116 0.000499705 -2.70192e-05 3.01239e-05 -7.51349e-06 1.09496e-07 3.96718e-07 -3.47583e-08 -1.3838e-07 3.91402e-07 1.04907e-06 0.0005 
1539 1 -0.0108426 -0.00778853 0.000499766 -7.85453e-05 0.000129418 5.10154e-05 7.44109e-08 1.04648e-08 -5.20138e-07 1.36742e-07 -2.78405e-07 1.2418e-06 0.0005 
986 1 -0.00831139 -0.0073511 0.000499651 2.82249e-05 2.04371e-06 -9.2553e-06 -7.43196e-08 4.4715e-08 9.52182e-08 1.93581e-07 -2.80153e-07 5.32491e-07 0.0005 
1847 1 -0.00714723 -0.00766164 0.000499526 8.81148e-06 -4.34966e-05 5.52449e-06 -1.17374e-07 -8.32815e-08 1.61708e-07 -6.44728e-07 4.10189e-07 8.29826e-07 0.0005 
1447 1 -0.00567742 -0.00711621 0.000499579 1.64561e-05 3.28816e-05 1.65247e-06 1.3465e-08 3.7931e-08 -1.41649e-07 -6.22562e-07 2.45466e-07 8.33283e-07 0.0005 
1848 1 -0.00459082 -0.00719383 0.000499639 0.000252098 -7.57739e-05 -1.59709e-05 -2.70709e-07 3.03649e-07 -8.39062e-07 -3.7614e-07 1.92408e-07 1.09463e-06 0.0005 
2417 1 -0.0035985 -0.00731644 0.000499612 0.000304366 8.01063e-05 -0.000141619 9.99098e-07 1.25478e-06 -1.28715e-06 -2.80909e-07 2.44835e-07 1.06908e-06 0.0005 
1462 1 -0.00258806 -0.00727587 0.000499586 0.000175705 0.000280392 -4.90522e-05 6.23e-07 1.42459e-06 -6.74708e-07 -1.47928e-07 3.1509e-07 1.04648e-06 0.0005 
46 1 -0.00130163 -0.00784356 0.000499735 0.000230386 -2.43997e-05 4.60696e-05 4.99776e-08 3.97998e-07 -7.2049e-08 -3.25266e-08 2.56201e-07 1.27285e-06 0.0005 
1432 1 -0.000202295 -0.00787842 0.000499486 -4.79219e-05 0.000145273 2.78404e-05 -3.29919e-08 6.4598e-08 1.2102e-08 5.10765e-08 4.78619e-07 1.18196e-06 0.0005 
2195 1 -0.0116009 -0.00660667 0.000499525 -4.48792e-05 7.28863e-05 -2.53047e-05 2.18548e-08 -1.2522e-07 6.9677e-08 3.40014e-07 -2.36634e-07 1.42766e-06 0.0005 
1429 1 -0.0106121 -0.00680477 0.000499796 0.0012307 -0.001056 -1.50914e-07 2.29189e-07 -9.73449e-08 -1.98583e-09 3.56578e-07 -1.72154e-07 8.65683e-07 0.0005 
551 1 -0.00960327 -0.00693235 0.000499522 6.48069e-05 8.23693e-05 -1.29023e-05 8.13096e-08 -2.68189e-09 -2.20075e-07 5.09951e-07 -4.98268e-08 8.14754e-07 0.0005 
490 1 -0.00786542 -0.00634659 0.000499521 -6.6304e-05 -4.36566e-05 -4.56352e-06 -1.11894e-07 -9.19412e-08 -1.27199e-08 -3.97993e-07 -5.18307e-07 6.60118e-07 0.0005 
1485 1 -0.00651378 -0.00656814 0.000499662 -7.06259e-05 -7.96061e-05 -1.38632e-05 7.31095e-08 9.7339e-08 1.8137e-08 -7.53815e-07 -2.18199e-07 8.09403e-07 0.0005 
74 1 -0.00406777 -0.00633592 0.000499736 5.84605e-05 -0.000100451 2.18036e-06 5.83309e-07 3.22385e-07 2.23461e-08 -4.36608e-07 7.79685e-08 1.03631e-06 0.0005 
2336 1 -0.00165785 -0.00690899 0.000499793 8.73495e-05 0.000129365 -4.89953e-06 -4.80034e-08 8.82132e-08 -4.9494e-08 3.94554e-08 3.19929e-07 1.00216e-06 0.0005 
606 1 -0.0109805 -0.00582297 0.000499693 1.70274e-05 1.19539e-05 -4.22462e-05 -1.57775e-09 -2.01737e-08 4.88813e-08 2.91973e-07 -1.07988e-07 9.76285e-07 0.0005 
1293 1 -0.00999932 -0.00601438 0.000499738 1.93273e-05 -4.24005e-05 -3.03516e-05 -1.2646e-07 2.99537e-07 -1.03361e-07 2.00576e-07 -3.13412e-07 9.24026e-07 0.0005 
1263 1 -0.00886172 -0.00626158 0.000499768 -0.000117646 0.000176457 -2.16216e-05 1.20503e-07 -7.43453e-08 -1.25684e-07 3.43443e-07 -5.29646e-07 7.52307e-07 0.0005 
1248 1 -0.00704932 -0.00572373 0.000499673 8.52121e-05 -1.75025e-05 -4.08644e-05 2.63718e-08 -2.96381e-07 -1.34072e-07 -7.1981e-07 -5.51394e-07 7.5242e-07 0.0005 
1101 1 -0.00564553 -0.00601961 0.000499604 1.89561e-05 -0.000312537 1.02364e-05 2.29182e-07 3.22223e-07 -3.89498e-08 -5.17163e-07 -2.57414e-07 8.23802e-07 0.0005 
817 1 -0.00470947 -0.0055689 0.000499688 8.9758e-05 -0.000128089 -2.08103e-05 -5.52987e-08 1.68788e-07 -9.41856e-08 -4.19668e-07 -1.54513e-07 1.04464e-06 0.0005 
1969 1 -0.00337129 -0.00556582 0.00049969 0.000108169 7.82252e-05 -1.17622e-05 -1.27055e-07 4.59742e-07 1.77289e-07 -2.68905e-07 -7.44402e-08 1.05025e-06 0.0005 
266 1 -0.00225169 -0.00610442 0.000499567 7.89034e-05 0.000127162 1.82789e-05 1.07562e-07 -6.74893e-08 -7.3427e-08 -2.14468e-07 -1.42319e-08 1.05676e-06 0.0005 
1477 1 -0.000917103 -0.00623725 0.000499641 -2.8742e-05 7.3268e-05 -4.47717e-05 -1.40276e-07 -2.29869e-07 3.95372e-08 3.35322e-07 5.48942e-07 1.52147e-06 0.0005 
740 1 -5.10015e-05 -0.00565431 0.000499656 -2.93663e-05 2.31109e-05 1.54448e-05 -8.05003e-08 -3.50633e-08 2.42646e-09 5.17044e-07 2.98285e-07 1.19638e-06 0.0005 
1091 1 -0.0121715 -0.00548504 0.000499578 -1.00176e-05 2.31274e-05 5.3046e-06 2.92094e-08 7.20933e-08 -7.36141e-10 2.27427e-07 1.53241e-07 1.54136e-06 0.0005 
900 1 -0.0113618 -0.00489889 0.000499824 -3.42394e-06 1.34238e-05 -2.46488e-05 -1.59409e-08 1.48346e-07 1.93699e-08 1.81573e-07 1.54469e-07 8.25242e-07 0.0005 
1315 1 -0.0103305 -0.00484325 0.000499638 5.1039e-05 -5.334e-05 3.25172e-05 -5.33748e-08 1.57786e-07 -9.20284e-09 1.62127e-07 -1.76047e-07 9.28119e-07 0.0005 
53 1 -0.00869782 -0.00527373 0.00049958 5.99697e-06 5.09812e-05 5.95408e-05 -4.52913e-08 -1.86606e-07 1.23957e-07 3.37175e-07 -8.46164e-07 1.01915e-06 0.0005 
1403 1 -0.00563958 -0.0049848 0.000499728 -0.000137232 -0.000435695 3.11851e-05 2.79421e-07 3.16114e-07 -2.4146e-07 -3.93399e-07 -5.76456e-07 9.65999e-07 0.0005 
2181 1 -0.00403882 -0.00482163 0.000499559 0.000176485 7.60508e-05 4.45983e-06 -2.00548e-07 1.20359e-07 -1.4148e-07 -1.55559e-07 -7.73441e-08 1.1032e-06 0.0005 
152 1 -0.00255433 -0.00498944 0.000499779 -1.57805e-05 0.000103755 -2.69187e-05 1.10381e-07 9.45543e-08 4.51257e-08 1.22529e-07 -4.26813e-08 1.20302e-06 0.0005 
262 1 -0.000908133 -0.00513943 0.000499739 4.84869e-05 1.92675e-05 -2.13191e-05 -1.74477e-07 -1.86265e-07 -9.79363e-08 3.76349e-07 3.0037e-07 1.50165e-06 0.0005 
890 1 -0.0125478 -0.00455858 0.000499616 -1.15594e-06 5.90128e-06 1.69863e-05 -7.60039e-08 -1.24067e-07 1.06836e-08 2.59497e-08 7.18852e-07 1.56871e-06 0.0005 
2 1 -0.0108927 -0.00401636 0.000499587 -3.24159e-05 2.20268e-06 -7.14376e-06 -6.72763e-08 1.1651e-07 7.05623e-09 1.93709e-07 1.68914e-07 9.66265e-07 0.0005 
12 1 -0.00941127 -0.00444933 0.000499744 0.000144893 -0.000101634 1.67327e-06 -7.05302e-08 -1.58317e-07 -2.89464e-08 2.65464e-07 -4.6891e-07 9.96187e-07 0.0005 
1415 1 -0.00839301 -0.00432151 0.000499698 0.000107968 4.3748e-05 -1.8934e-05 -1.96168e-07 -2.86863e-07 3.13105e-08 2.4095e-07 -5.68099e-07 9.61551e-07 0.0005 
93 1 -0.00727237 -0.00460545 0.000499597 8.9194e-05 -4.35433e-05 2.00358e-06 1.53362e-07 -2.7391e-07 -3.62541e-07 7.06827e-08 -4.87545e-07 8.97956e-07 0.0005 
2064 1 -0.00587778 -0.00401368 0.000499572 0.000177853 -0.000187608 6.57415e-05 -6.20513e-08 3.35586e-07 -1.73428e-07 -2.5647e-07 -8.30631e-07 1.00636e-06 0.0005 
1452 1 -0.00491348 -0.00427829 0.000499727 0.000202026 -0.000401186 6.22409e-05 -1.92802e-07 2.71197e-07 7.5482e-08 -1.70452e-07 -2.88896e-07 1.09114e-06 0.0005 
1459 1 -0.00325593 -0.00419951 0.000499701 0.000381616 -0.00012259 -1.77015e-05 -4.26452e-07 -4.37326e-07 -3.34882e-07 1.50267e-07 -4.45563e-08 1.21581e-06 0.0005 
1507 1 -0.00168192 -0.00450088 0.000499786 -4.11844e-05 0.000125946 -3.59671e-07 -6.9802e-07 -4.50703e-08 -4.13798e-07 3.24894e-07 9.96901e-08 1.38789e-06 0.0005 
2217 1 -0.000744446 -0.00415311 0.000499602 9.45677e-05 -0.000152229 6.09625e-06 2.19582e-07 -1.72029e-07 -7.54e-09 4.42212e-07 2.45126e-07 1.49273e-06 0.0005 
982 1 -0.0129118 -0.00339159 0.000499805 8.86928e-05 5.13958e-06 6.5258e-06 5.73924e-08 1.58014e-07 9.12162e-08 -1.99703e-07 7.60336e-07 1.46506e-06 0.0005 
1544 1 -0.00998643 -0.00359438 0.000499754 9.1681e-05 -0.000153958 5.87532e-05 -3.40205e-07 4.78387e-07 -2.44955e-07 4.94481e-08 -9.9433e-08 9.53696e-07 0.0005 
2007 1 -0.00898946 -0.00351916 0.000499699 0.0001314 -3.20937e-05 -4.22241e-05 -4.65509e-07 3.545e-08 1.08942e-07 6.26698e-08 -2.11079e-07 9.39547e-07 0.0005 
1617 1 -0.00780996 -0.00350931 0.000499612 0.000224572 -3.18826e-05 -1.55925e-05 -5.67514e-07 -2.26164e-07 -6.86146e-08 -1.10767e-07 -4.99483e-07 9.52458e-07 0.0005 
696 1 -0.00683005 -0.0037086 0.000499779 0.000309755 1.72278e-06 1.3606e-05 -9.47016e-07 -4.48041e-07 1.43077e-06 -1.19448e-07 -6.58034e-07 9.07988e-07 0.0005 
1178 1 -0.00502174 -0.00326537 0.000499687 0.00010922 -0.00037216 2.8014e-05 1.97962e-07 -7.81885e-07 -1.06508e-07 5.89658e-08 -3.421e-07 8.87325e-07 0.0005 
230 1 -0.00411052 -0.00367975 0.000499767 -3.25813e-05 -0.000267455 -1.5928e-05 2.0774e-07 1.64442e-07 1.36362e-07 5.14357e-08 -5.12075e-08 1.07668e-06 0.0005 
1067 1 -0.00243825 -0.00359773 0.000499519 3.90458e-05 -0.00011139 -9.94286e-05 1.36264e-07 -2.37332e-07 -2.99536e-07 2.49551e-07 2.67676e-08 1.2092e-06 0.0005 
9 1 -0.0131297 -0.00241569 0.000499775 -2.95338e-05 3.16755e-05 6.7532e-06 -4.80081e-08 1.22463e-07 -4.73474e-08 -6.15396e-07 2.88049e-07 1.14575e-06 0.0005 
2406 1 -0.0116662 -0.00306044 0.000499513 -8.53499e-05 4.37043e-05 2.71849e-05 -1.34931e-07 1.77716e-08 -1.20816e-08 -3.13301e-07 3.70772e-07 9.95369e-07 0.0005 
178 1 -0.00953167 -0.00267913 0.000499762 -2.67742e-05 -0.000119906 3.67317e-05 -5.90277e-08 -1.93131e-08 1.65274e-08 -2.4206e-07 -1.36038e-07 9.385e-07 0.0005 
1238 1 -0.00853319 -0.00262941 0.000499408 5.65942e-05 -0.000104109 6.3214e-05 2.23217e-08 2.06496e-08 1.51712e-07 -2.79801e-07 -3.87088e-07 9.51871e-07 0.0005 
1610 1 -0.00702188 -0.0027272 0.000499794 0.00019094 -2.75229e-05 6.40407e-05 5.36916e-07 -1.10077e-06 -5.14856e-08 -2.60678e-07 -5.81801e-07 1.01653e-06 0.0005 
391 1 -0.00599106 -0.00302019 0.000499725 -7.03502e-06 -1.4117e-05 0.000394085 4.9292e-07 4.60361e-07 -1.73522e-07 -8.2352e-08 -5.83429e-07 1.11948e-06 0.0005 
1798 1 -0.00418586 -0.002637 0.00049969 0.000223264 -0.000177234 0.000125763 1.21867e-07 -1.93041e-07 3.59567e-07 3.43278e-07 -3.54315e-08 9.39148e-07 0.0005 
619 1 -0.00326308 -0.00302196 0.000499717 0.000389547 0.00012471 8.62141e-05 1.62217e-07 -3.181e-07 1.16079e-07 1.00492e-07 1.82377e-07 1.07322e-06 0.0005 
38 1 -0.0022993 -0.00260757 0.000499595 -2.95082e-05 -2.22537e-05 -2.27471e-05 6.72047e-07 5.66085e-07 -4.51328e-07 1.51949e-08 2.67567e-07 1.11441e-06 0.0005 
736 1 -0.000794078 -0.00293522 0.000499585 3.99134e-05 -0.000170541 1.13593e-06 2.81235e-07 -2.45548e-07 5.11032e-08 3.62308e-07 -3.80457e-07 1.17686e-06 0.0005 
186 1 -0.0124321 -0.00169936 0.000499403 -9.1052e-06 -2.92662e-05 3.0738e-05 -2.66433e-07 -5.83992e-08 2.96846e-07 -1.00508e-06 -1.15585e-07 5.51591e-07 0.0005 
459 1 -0.0114387 -0.00208702 0.000499826 2.0636e-05 2.01713e-05 -2.75821e-05 -1.0037e-07 -1.47112e-08 2.10299e-07 -9.76754e-07 -1.95227e-10 9.31102e-07 0.0005 
866 1 -0.0104702 -0.00233496 0.000499628 -3.11035e-05 -3.41213e-05 -2.91037e-05 -1.40653e-07 -8.27719e-08 -2.27036e-08 -5.54582e-07 -1.17451e-07 9.02526e-07 0.0005 
1411 1 -0.00939199 -0.00167442 0.000499756 0.000326174 -0.000481159 -5.4672e-06 -2.52974e-07 -3.88537e-07 -1.8038e-07 -6.13915e-07 -5.01411e-07 1.03217e-06 0.0005 
1278 1 -0.00773548 -0.00202675 0.000499629 0.00012545 -6.88667e-05 8.0379e-05 7.98315e-07 -8.53032e-07 -1.66891e-07 -4.00667e-07 -5.45085e-07 9.9168e-07 0.0005 
62 1 -0.00606523 -0.00197002 0.00049967 0.000215771 -7.03837e-05 0.000142926 1.28518e-06 -1.04863e-06 -6.65065e-07 1.604e-08 -5.10026e-07 1.13163e-06 0.0005 
1669 1 -0.00504587 -0.00212726 0.000499639 -0.000257956 -0.000514755 9.25719e-05 -3.25723e-07 -6.25472e-07 -2.84386e-07 2.97726e-07 -3.07227e-07 1.00438e-06 0.0005 
695 1 -0.00150502 -0.00193348 0.00049966 -5.2633e-06 -0.000353931 -4.41756e-05 1.52176e-07 2.67716e-07 -3.11316e-07 2.25369e-07 -4.07055e-07 1.02258e-06 0.0005 
1530 1 -0.0132964 -0.00119658 0.000499801 1.06529e-05 6.26671e-05 -2.6078e-06 -4.57645e-08 3.37863e-07 -4.35263e-08 -7.59438e-07 -3.11576e-07 1.03447e-06 0.0005 
1654 1 -0.0107086 -0.00136423 0.000499526 -5.95702e-06 6.26082e-06 -5.31478e-05 -8.1711e-08 -2.17228e-08 4.99762e-08 -1.22692e-06 -3.12386e-07 9.17935e-07 0.0005 
299 1 -0.00771985 -0.00102707 0.000499752 0.000232601 5.8296e-05 -1.30707e-05 -5.4079e-08 -1.87553e-07 -9.76251e-08 -4.42992e-07 -7.1663e-07 1.04769e-06 0.0005 
98 1 -0.00668156 -0.0010671 0.00049961 2.10035e-05 -0.000137709 -6.28172e-06 6.16714e-07 6.01817e-08 6.74623e-08 -8.45803e-08 -4.29268e-07 1.15892e-06 0.0005 
1060 1 -0.00393358 -0.00153499 0.00049959 6.11205e-05 -7.20705e-05 9.0549e-07 1.20972e-07 2.65405e-07 2.10286e-07 5.3839e-07 -2.34141e-07 1.01494e-06 0.0005 
781 1 -0.00224955 -0.00126613 0.000499658 0.000311293 -0.000119733 -5.86443e-05 2.32457e-07 -7.77109e-07 -5.92265e-07 -1.78226e-08 -3.59068e-07 9.54706e-07 0.0005 
1955 1 -0.000305845 -0.00145461 0.000499558 -0.00011607 -5.9269e-05 -6.64265e-05 -6.44035e-07 -1.25215e-07 1.41447e-07 4.89017e-07 -4.25633e-07 1.19793e-06 0.0005 
967 1 -0.0133491 -0.000186914 0.000499668 -1.26343e-05 1.80784e-05 -1.73927e-05 -6.00996e-09 1.26682e-07 9.49316e-09 -3.53293e-07 -9.47417e-07 1.45837e-06 0.0005 
1675 1 -0.0124512 -0.00062604 0.000499589 -4.35396e-05 -3.42755e-05 -1.14639e-05 3.8464e-08 -7.15355e-08 4.69724e-08 -1.01433e-06 -4.99173e-07 5.53052e-07 0.0005 
2125 1 -0.0115052 -0.00011 0.000499697 -3.4942e-05 1.34878e-05 -5.72002e-06 4.8067e-08 -2.75619e-08 -4.44536e-09 -7.56046e-07 -6.35068e-07 1.0162e-06 0.0005 
2169 1 -0.00952687 -0.000683302 0.000499623 6.37645e-05 -5.36619e-05 3.63299e-05 -1.8953e-07 -5.67701e-08 -5.50365e-08 -7.63378e-07 -6.65049e-07 1.03505e-06 0.0005 
6577 1 -0.00856759 -0.000401924 0.000499613 0.000104297 -2.07226e-05 -1.01496e-05 -2.69925e-07 -7.25521e-08 1.2904e-07 -5.16045e-07 -6.26494e-07 1.03826e-06 0.0005 
6638 1 -0.00681335 -7.60447e-05 0.000499566 1.41685e-05 -6.66131e-05 1.29397e-05 1.36535e-07 -5.44495e-09 2.16906e-07 -2.3072e-10 -2.76176e-07 1.00306e-06 0.0005 
1600 1 -0.00578164 -0.000631146 0.000499769 -5.59271e-05 -8.82841e-05 -5.47642e-07 -3.38657e-07 2.92907e-07 1.19427e-07 2.22093e-07 -2.79213e-07 1.18813e-06 0.0005 
108 1 -0.00334182 -0.000729039 0.00049957 0.000240425 -0.000266047 -0.000117328 6.07848e-07 -7.58157e-07 -1.17248e-06 2.35153e-07 -4.12065e-07 9.84867e-07 0.0005 
288 1 -0.00183932 -0.000302172 0.000499631 -0.000480232 0.000208099 9.75951e-05 -1.0693e-06 2.03761e-07 9.67879e-08 9.57169e-08 -5.33994e-07 1.02396e-06 0.0005 
1934 1 -0.000376777 -0.00045533 0.000499618 -8.99308e-05 -0.000380911 -1.57691e-05 -5.5016e-07 -2.6774e-06 -5.66255e-07 4.74636e-07 -6.53734e-07 1.2989e-06 0.0005 
1180 1 -0.00373519 -0.012817 0.000884353 2.31811e-05 -3.2614e-05 -3.05022e-05 -2.28211e-08 2.92465e-08 -1.3947e-09 -1.27829e-06 -3.46634e-07 1.66218e-06 0.0005 
1047 1 -0.00268898 -0.0130766 0.000921409 6.17965e-05 -4.76497e-06 -2.32177e-05 7.1068e-08 7.27282e-08 1.14341e-07 -9.75207e-07 -2.14968e-07 2.01978e-06 0.0005 
1971 1 -9.04683e-05 -0.0126772 0.00123216 0.000248735 7.28139e-05 -0.000219839 5.38537e-07 -1.27872e-07 4.25196e-07 3.49818e-08 -7.47384e-08 2.52642e-06 0.0005 
2017 1 -0.0057221 -0.0120617 0.0012215 5.34712e-06 1.45679e-07 -4.95443e-06 6.85349e-08 -2.13947e-08 -1.29234e-08 -3.57269e-07 -8.04743e-07 1.54925e-06 0.0005 
2053 1 -0.00466393 -0.0125092 0.000679476 1.19909e-05 1.77293e-06 -2.1107e-05 -2.35317e-07 -1.83668e-07 -3.81222e-08 -1.01878e-06 -6.95508e-07 1.36073e-06 0.0005 
427 1 -0.00478085 -0.0109829 0.00113044 -8.37696e-05 -4.60463e-05 0.000138601 -3.08821e-07 1.06893e-08 -1.59266e-07 -7.82361e-07 -1.0022e-06 1.80397e-06 0.0005 
2081 1 -0.00165891 -0.010678 0.00081993 0.000130872 1.28633e-05 4.04541e-06 7.50953e-08 -1.28392e-07 -1.90331e-07 -1.16599e-07 7.13088e-08 1.84386e-06 0.0005 
1375 1 -0.00811731 -0.0094814 0.000937521 6.8264e-05 9.59113e-05 1.2829e-05 1.76686e-07 5.75603e-08 -1.62687e-07 2.17733e-07 2.37497e-07 1.81367e-06 0.0005 
1658 1 -0.0063512 -0.0100574 0.000516939 -6.21337e-06 -1.36204e-05 7.38579e-05 1.38893e-08 8.92535e-08 -1.96548e-08 -5.89208e-07 -8.13425e-07 9.32261e-07 0.0005 
110 1 -0.00454455 -0.010013 0.00107431 -9.65434e-06 -2.50567e-05 2.5845e-05 -2.13672e-07 -1.53674e-07 -2.83014e-08 -6.83712e-07 -6.71498e-07 1.83193e-06 0.0005 
1487 1 -0.00219869 -0.00991044 0.00122767 0.00021279 0.000172796 -0.000245392 3.08324e-08 -2.51597e-07 -2.23504e-07 -1.84868e-07 1.75782e-07 2.38116e-06 0.0005 
2461 1 -0.00958485 -0.00929327 0.00111869 9.33685e-05 -7.72653e-05 4.67698e-05 3.87594e-08 -2.96995e-07 5.46273e-08 1.49405e-07 -3.00099e-07 1.94499e-06 0.0005 
106 1 -0.0062217 -0.00938241 0.00124309 3.97299e-05 4.32446e-05 0.000136792 8.70561e-08 3.49547e-07 1.27242e-07 -5.65142e-07 -2.78677e-07 1.84229e-06 0.0005 
1750 1 -0.00394751 -0.00921566 0.000988271 7.03316e-05 -0.000109571 4.02215e-06 3.06561e-07 -3.4092e-07 -1.0806e-06 -5.27617e-07 1.4266e-07 2.10533e-06 0.0005 
243 1 -0.00696392 -0.0083451 0.00120572 0.000238177 -3.33419e-05 -1.53412e-05 -2.33317e-07 -1.35958e-07 2.03849e-07 -7.20852e-07 1.19904e-06 1.9362e-06 0.0005 
948 1 -0.00519342 -0.00798271 0.000619211 0.000159729 5.66894e-05 -9.13785e-05 -1.04685e-08 3.32308e-07 8.36101e-08 -5.32689e-07 2.61032e-07 1.31751e-06 0.0005 
793 1 -0.00403154 -0.00819802 0.000686151 0.00011392 -1.04479e-05 9.32549e-05 9.67664e-08 5.46209e-07 3.55242e-07 -2.98349e-07 2.5311e-07 1.24614e-06 0.0005 
1694 1 -0.00168402 -0.00849913 0.00123435 0.00017652 0.000293015 -8.428e-05 -4.5356e-09 -1.89497e-08 -8.91001e-08 -2.32607e-08 3.29717e-07 2.37641e-06 0.0005 
842 1 -0.0100284 -0.00764189 0.0010613 2.18233e-05 -1.64838e-05 3.51622e-05 -1.84277e-07 2.25058e-07 -1.28174e-06 2.9122e-07 -6.75828e-08 1.56237e-06 0.0005 
239 1 -0.0090549 -0.00742588 0.00117436 -2.87265e-05 5.15158e-05 8.31549e-05 -3.70513e-07 -2.83111e-08 -1.31625e-07 6.58818e-07 1.25266e-07 1.65557e-06 0.0005 
13 1 -0.00305038 -0.00785264 0.0011726 0.000148138 8.75508e-06 -0.000670529 3.46291e-07 2.61277e-07 -2.46453e-06 -1.63539e-07 3.74504e-07 2.30823e-06 0.0005 
1059 1 -0.00723751 -0.00674886 0.0011653 -4.27614e-06 -0.000113203 -5.84131e-05 -2.94388e-07 4.06122e-07 2.17254e-07 -9.81675e-07 -3.23707e-07 1.70793e-06 0.0005 
830 1 -0.00490423 -0.00641447 0.00104184 5.26426e-05 -0.000247112 9.70003e-06 4.17719e-07 1.31273e-07 -2.22183e-08 -4.41306e-07 1.54147e-08 1.86676e-06 0.0005 
515 1 -0.00312569 -0.00648767 0.0007983 0.000215868 0.000142079 -0.000165376 1.85705e-06 1.3733e-06 -1.44953e-06 -3.19073e-07 1.66913e-08 1.56635e-06 0.0005 
2421 1 -0.000541651 -0.00705008 0.000944334 -2.62752e-05 0.000109619 -3.5522e-05 7.16575e-08 5.98276e-08 9.16007e-08 1.83872e-07 4.25408e-07 2.34922e-06 0.0005 
1645 1 -0.00629843 -0.0056394 0.00115432 0.000129689 -0.000185439 -4.28828e-05 -2.2438e-10 -1.63477e-07 -2.63739e-07 -4.57541e-07 -4.37311e-07 1.82272e-06 0.0005 
100 1 -0.00404015 -0.00564358 0.00123867 0.00015298 1.75419e-05 -8.82465e-05 -4.87794e-07 4.67125e-07 -2.88199e-08 -2.50565e-07 1.31968e-08 2.40949e-06 0.0005 
1689 1 -0.00272046 -0.00564634 0.00125447 0.000201194 0.000302594 -5.68065e-05 5.39734e-07 1.13731e-06 2.06554e-08 -1.72539e-07 -1.40453e-07 2.59881e-06 0.0005 
2208 1 -0.00153599 -0.00568319 0.00105618 9.75264e-05 0.000174725 3.53765e-05 -2.92516e-07 -2.18282e-08 -7.20716e-08 2.42606e-07 2.87427e-07 2.5675e-06 0.0005 
1899 1 -0.0104145 -0.00549302 0.0012548 2.80694e-05 -0.000138679 -5.72491e-05 -8.37176e-08 3.73141e-07 -4.73194e-08 1.05799e-07 -2.52842e-07 2.18956e-06 0.0005 
220 1 -0.0094209 -0.00551685 0.0011456 -8.47631e-06 -9.35457e-05 8.76238e-05 -2.90893e-07 1.4522e-07 1.97057e-08 3.00997e-07 -6.06527e-07 2.11104e-06 0.0005 
1211 1 -0.00787194 -0.00549224 0.00101862 0.000124288 4.12409e-05 -6.16904e-06 1.44298e-07 -3.03468e-07 -1.88661e-08 -3.35668e-08 -4.70874e-07 1.45549e-06 0.0005 
565 1 -0.00335736 -0.00487604 0.00122903 0.000155117 0.000161365 -1.97395e-05 -7.52369e-08 4.65548e-08 -1.41885e-07 1.76852e-07 -6.15083e-08 2.3617e-06 0.0005 
2300 1 -0.0118219 -0.00397721 0.00086657 -3.83098e-05 3.19097e-05 3.98664e-05 -1.39955e-07 9.18332e-08 1.19287e-07 4.96405e-08 7.15817e-07 1.74955e-06 0.0005 
1986 1 -0.00642829 -0.00465555 0.00103277 0.000195231 -0.00020184 -7.13583e-05 -9.4237e-08 -2.46371e-07 -4.35153e-07 -2.99576e-07 -7.79855e-07 1.85221e-06 0.0005 
704 1 -0.00149245 -0.00357358 0.000822608 -3.37846e-05 -0.000300781 -0.000256916 1.542e-06 1.59053e-08 8.52767e-07 3.72382e-07 -4.51043e-08 1.75065e-06 0.0005 
2160 1 -7.46611e-05 -0.00351588 0.000879918 9.6057e-05 -0.000187905 -7.94617e-05 4.98352e-07 6.88399e-08 3.69669e-09 3.11255e-07 -8.07055e-08 1.54949e-06 0.0005 
532 1 -0.0107956 -0.00314702 0.000983258 1.95575e-06 -2.02548e-05 -1.48394e-05 -4.8695e-08 1.46976e-07 1.53272e-07 -2.71671e-08 1.62102e-07 1.89212e-06 0.0005 
1201 1 -0.00782188 -0.00278162 0.00118507 0.000278824 0.000121154 -0.000138165 -2.99704e-07 -4.03549e-07 3.80745e-08 -4.5207e-07 -4.71481e-07 2.24868e-06 0.0005 
297 1 -0.00158214 -0.00264805 0.00119493 0.000197797 1.01374e-05 -0.000316803 1.01716e-06 4.13669e-08 -7.79335e-08 1.91905e-07 -1.83534e-07 2.6751e-06 0.0005 
2224 1 -0.00854832 -0.00178028 0.00102668 8.74525e-05 -9.65044e-05 0.000179945 4.11134e-07 -1.62121e-07 3.73142e-07 -4.16894e-07 -4.6264e-07 1.71171e-06 0.0005 
1596 1 -0.00690447 -0.00188104 0.00103574 0.000153303 0.000140082 0.000370596 1.36274e-06 -5.9924e-07 -2.43518e-06 -1.97312e-07 -4.6803e-07 1.8603e-06 0.0005 
2261 1 -0.00301036 -0.00190963 0.000581564 7.65052e-05 8.78633e-05 -5.20664e-05 9.49397e-08 -1.95411e-07 -2.00173e-07 8.03047e-08 5.54753e-08 1.23741e-06 0.0005 
48 1 -0.000728883 -0.00213593 0.00109669 0.000165561 -7.70354e-05 -2.28778e-05 1.50496e-07 -1.20093e-07 8.01991e-08 3.99947e-07 -5.95824e-07 2.54084e-06 0.0005 
78 1 -0.011645 -0.00114854 0.000775297 -7.89446e-06 -2.21464e-05 -2.00512e-05 -9.25215e-08 -1.17321e-07 2.5673e-07 -1.36971e-06 -3.11703e-07 1.30688e-06 0.0005 
367 1 -0.0100358 -0.00116627 0.00121197 0.000160441 -0.000450668 -0.00014177 -2.28567e-07 1.18166e-07 -1.59526e-07 -1.06909e-06 -5.50518e-07 2.33939e-06 0.0005 
1540 1 -0.00605176 -0.00129905 0.00124073 6.18575e-05 -2.09911e-05 0.000144539 2.34903e-07 7.68748e-07 -1.62622e-07 8.73396e-08 -3.55972e-07 2.78546e-06 0.0005 
5 1 -0.00510055 -0.00122535 0.000927264 -0.000125651 -0.000284779 4.18171e-05 -3.68037e-08 -3.30051e-07 -1.95592e-07 5.18787e-07 -3.58426e-07 1.9081e-06 0.0005 
1357 1 -0.0011746 -0.00101423 0.000725125 -0.00040781 -0.000173884 -0.000563277 -2.15168e-06 -5.89809e-07 -1.81106e-06 3.9783e-07 -5.65126e-07 1.88002e-06 0.0005 
2095 1 -0.0104785 -0.000397895 0.000610088 5.80383e-05 -2.22038e-05 -2.06611e-05 -1.84004e-07 -6.25046e-08 5.61252e-08 -1.07044e-06 -4.93038e-07 1.10344e-06 0.0005 
42 1 -0.00429723 -0.000647868 0.000783153 -2.79537e-06 -0.00016774 -0.000142124 -6.60525e-07 -6.76338e-08 -5.96209e-07 8.42656e-07 -4.54195e-07 1.62612e-06 0.0005 
548 1 -0.00257906 -0.000556959 0.00112234 -0.000347743 -0.00106321 0.000337192 -5.86049e-07 -2.09212e-06 -6.96073e-07 -2.10998e-07 -5.80554e-07 2.30304e-06 0.0005 
805 1 -0.00318985 -0.0129635 0.00177944 0.000112988 -4.20339e-06 1.58829e-05 -2.2694e-07 -3.47888e-09 -1.1653e-07 -9.33504e-07 -3.27805e-07 2.66901e-06 0.0005 
643 1 -0.00198933 -0.013201 0.00162471 3.67369e-05 -4.41296e-05 -5.08573e-05 2.69066e-07 -1.54804e-07 7.37066e-08 -5.44182e-07 1.26551e-07 2.95249e-06 0.0005 
1951 1 -0.000853558 -0.0133227 0.00127584 7.18838e-05 -1.65542e-05 -2.94306e-05 2.82061e-08 -1.75465e-08 -9.80773e-08 -4.49473e-07 9.52679e-08 2.83084e-06 0.0005 
2416 1 -0.000156706 -0.0133289 0.0019928 1.31642e-05 -8.06239e-05 3.12902e-05 -1.84744e-07 -1.07146e-07 3.2322e-08 -1.3387e-07 1.74456e-08 3.51706e-06 0.0005 
527 1 -0.00437044 -0.0126144 0.00162946 5.21561e-05 -1.17253e-05 -4.52795e-05 4.48211e-08 -8.35078e-08 1.63941e-07 -9.5089e-07 -3.67327e-07 2.13476e-06 0.0005 
2327 1 -0.00337519 -0.0120506 0.00141646 6.57011e-05 2.30231e-05 1.47183e-05 -3.48967e-07 -9.53467e-08 -5.26087e-08 -1.12216e-06 -6.52591e-07 2.36889e-06 0.0005 
886 1 -0.00239293 -0.0122615 0.00141887 0.000150877 -3.93041e-06 6.77581e-06 -2.60999e-07 1.68815e-07 1.41014e-07 -6.93471e-07 -2.31024e-07 2.5187e-06 0.0005 
848 1 -0.0013996 -0.0124787 0.00126403 0.000107639 -8.95376e-05 4.03225e-05 2.1411e-07 1.51682e-08 -1.3003e-08 -4.80549e-07 1.19787e-07 2.84858e-06 0.0005 
125 1 -0.000638881 -0.0119382 0.00162311 0.00024795 0.000216134 -0.000516883 3.49904e-07 -4.7544e-08 -4.42735e-07 -1.37865e-07 1.06341e-07 3.21362e-06 0.0005 
2456 1 -0.00679253 -0.011493 0.0013533 -1.85644e-05 -7.33112e-07 2.48036e-07 1.66542e-07 -6.46872e-08 -3.28159e-08 -5.86991e-08 -8.41796e-07 1.69487e-06 0.0005 
461 1 -0.00541298 -0.0112851 0.0018595 4.31115e-05 -9.03834e-05 -0.000204011 -1.17737e-07 -2.11675e-07 2.47777e-07 -3.78655e-07 -8.50703e-07 2.40777e-06 0.0005 
2263 1 -0.00448092 -0.0116466 0.00185479 4.43688e-05 -1.99088e-05 -6.56055e-05 -1.54942e-07 -5.77462e-08 2.81719e-07 -8.11624e-07 -6.82638e-07 2.54787e-06 0.0005 