ITEM: TIMESTEP
50000
ITEM: NUMBER OF ATOMS
10000
ITEM: BOX BOUNDS mm mm mm
-0.015 0.015
-0.015 0.015
-0.001 0.0554
ITEM: ATOMS id type x y z vx vy vz fx fy fz f_dragforce[1] f_dragforce[2] f_dragforce[3] radius 
1359 1 -0.00148863 -0.0132648 0.000499683 -8.17408e-05 -2.3504e-05 2.53017e-08 8.6567e-08 9.15452e-09 2.1234e-08 2.31289e-08 7.84253e-09 1.41053e-06 0.0005 
637 1 -0.00304765 -0.0122415 0.000498526 -1.13632e-05 7.53144e-06 -6.04847e-06 2.95732e-09 -4.31732e-08 1.71596e-09 1.70833e-08 6.18742e-08 9.25397e-07 0.0005 
1496 1 -0.00207145 -0.0124524 0.000498412 -8.3032e-06 1.05134e-05 2.13538e-06 1.11669e-08 -6.2447e-08 -1.90746e-08 1.67143e-08 3.40419e-08 1.00584e-06 0.0005 
502 1 -0.000772035 -0.0125198 0.000498699 -2.18746e-06 -5.2564e-06 4.99395e-07 2.03042e-08 -7.92114e-08 -7.67517e-09 1.59851e-08 8.26581e-09 9.1434e-07 0.0005 
1195 1 -0.00706033 -0.0111008 0.000499392 -0.000106675 -7.61607e-05 -1.09537e-05 -6.75128e-08 -4.34789e-08 -2.06221e-08 -1.57632e-07 4.49588e-08 1.15299e-06 0.0005 
1356 1 -0.00631247 -0.0117637 0.000499448 -1.74413e-05 1.25611e-05 7.30437e-06 -8.48302e-08 6.06707e-09 1.3365e-08 -1.16738e-07 1.19999e-07 1.30266e-06 0.0005 
939 1 -0.00514908 -0.011661 0.000499579 1.48774e-05 1.10121e-05 1.79272e-06 -1.34799e-07 -9.86015e-08 -9.00186e-09 -5.06313e-08 1.06101e-07 9.70901e-07 0.0005 
1758 1 -0.00414907 -0.0116608 0.000499791 6.51253e-05 0.000132432 2.84976e-07 -1.47272e-09 6.16087e-08 3.80542e-09 -3.45337e-09 8.05229e-08 8.46406e-07 0.0005 
656 1 -0.00321886 -0.0112589 0.000498873 -1.67237e-05 1.34569e-05 1.53535e-06 2.02991e-08 -7.14767e-08 -2.29648e-08 -8.24418e-09 8.33034e-08 8.66203e-07 0.0005 
758 1 -0.00220789 -0.0114623 0.000499453 -2.2673e-06 1.96197e-05 5.92806e-06 -1.82072e-09 -6.51584e-08 -5.59557e-09 -1.65213e-08 5.30045e-08 8.78697e-07 0.0005 
319 1 -0.0012042 -0.011513 0.000499757 2.53748e-05 -3.13352e-05 -1.55675e-06 -2.11222e-07 -1.22331e-07 7.92165e-09 -2.99109e-08 3.41662e-08 8.85512e-07 0.0005 
511 1 -1.4814e-05 -0.0111175 0.000497138 -1.3645e-05 -1.93309e-05 -1.17099e-05 -5.03517e-08 -5.32187e-08 -1.97686e-08 -5.83583e-09 2.21945e-08 7.64212e-07 0.0005 
1144 1 -0.00801935 -0.010673 0.000499759 -5.92711e-05 6.17004e-05 -6.11693e-06 -1.30656e-07 6.1996e-08 -1.36947e-08 -2.29294e-07 -5.30992e-08 1.09936e-06 0.0005 
353 1 -0.0057831 -0.0108882 0.000499585 8.00889e-05 7.03578e-05 -1.56515e-06 -8.31816e-08 -2.69664e-08 -1.98668e-08 -7.2589e-08 4.76965e-08 8.86382e-07 0.0005 
1818 1 -0.00393621 -0.0105654 0.000498093 -7.1619e-06 3.80728e-05 3.23456e-06 2.52181e-08 -6.43686e-08 -1.01278e-08 -8.40695e-09 4.39659e-08 8.63251e-07 0.0005 
1873 1 -0.00258438 -0.010488 0.00049967 1.22979e-05 -4.34465e-06 -7.70538e-06 -5.95619e-08 -6.30125e-08 1.28193e-08 -1.1885e-08 2.12542e-08 8.602e-07 0.0005 
2211 1 -0.000755113 -0.0104465 0.000498578 -5.70064e-06 -1.73752e-05 -5.35824e-06 -3.99675e-08 -8.31439e-08 -2.5262e-09 -3.73631e-08 -5.10873e-09 8.39556e-07 0.0005 
647 1 -0.0088484 -0.00999763 0.000499476 -6.28604e-05 6.85798e-05 1.27852e-06 -8.54624e-08 1.16087e-07 8.89113e-09 -1.93844e-07 -1.37126e-07 1.06642e-06 0.0005 
542 1 -0.00733241 -0.00992638 0.000499181 -7.53413e-05 -0.000212801 -7.54491e-07 -9.37098e-08 -5.98744e-08 -1.53898e-08 -1.78162e-07 -1.51638e-07 8.22441e-07 0.0005 
1585 1 -0.00535262 -0.00994818 0.00049879 -1.96833e-05 8.91621e-05 6.18184e-06 -5.20507e-09 -9.5712e-09 -2.54753e-08 -1.53276e-08 -4.50584e-08 8.71498e-07 0.0005 
2142 1 -0.00325969 -0.00975185 0.000499251 1.85608e-05 -6.16852e-06 6.30158e-06 -1.17572e-07 -1.01065e-07 -2.5797e-08 1.58858e-08 -7.29462e-08 8.45974e-07 0.0005 
2330 1 -0.00886531 -0.00899074 0.000498001 3.69965e-05 1.50312e-05 1.72503e-05 -2.26702e-08 7.42135e-08 1.29481e-08 -1.81115e-07 -2.17493e-07 7.94484e-07 0.0005 
733 1 -0.00681194 -0.00907015 0.000499103 5.61269e-05 -0.00010976 -4.59002e-06 5.10644e-08 -6.61163e-08 -4.21948e-08 -1.07123e-07 -1.55839e-07 8.81075e-07 0.0005 
1443 1 -0.00575752 -0.00889895 0.00049919 5.75394e-05 3.19923e-05 9.66591e-07 -7.05704e-09 -9.89448e-09 -1.59706e-09 -4.2457e-08 -1.75935e-07 8.77349e-07 0.0005 
1221 1 -0.00475849 -0.00887585 0.000499112 7.38388e-05 -2.18921e-06 1.09691e-05 -3.05874e-08 2.94454e-08 -1.57569e-08 -3.86365e-09 -1.84701e-07 8.80094e-07 0.0005 
388 1 -0.00321375 -0.0087533 0.000499691 0.000133943 -3.2604e-06 -2.09738e-06 -6.80374e-08 -5.96687e-08 3.2818e-08 1.92542e-08 -1.17681e-07 8.47861e-07 0.0005 
823 1 -0.00236342 -0.00928 0.00049978 9.08412e-05 -4.39472e-05 -8.41439e-06 -1.10935e-07 -4.51619e-08 -3.33862e-09 2.46912e-08 -1.12793e-07 8.29641e-07 0.0005 
714 1 -0.0010841 -0.00881256 0.000498982 1.77488e-05 1.67339e-05 -1.08304e-07 -6.53345e-08 -7.17822e-08 -3.58782e-08 1.89983e-08 -1.48949e-07 7.93732e-07 0.0005 
462 1 -8.64546e-05 -0.00886644 0.00049884 -5.49775e-07 -1.84397e-06 -2.24755e-06 -6.16222e-08 -4.92505e-08 -1.76991e-08 -3.71852e-08 -5.84233e-08 7.39996e-07 0.0005 
529 1 -0.010207 -0.00860542 0.000499771 -5.8722e-05 7.58921e-05 -6.22524e-06 -8.03272e-08 1.09652e-07 -2.25286e-08 2.64558e-08 -3.00419e-07 1.15914e-06 0.0005 
359 1 -0.00933844 -0.0081114 0.00049863 -1.36445e-05 2.56767e-07 4.42112e-06 -5.24516e-08 5.4131e-08 -4.73621e-08 -1.52823e-07 -1.83992e-07 8.52117e-07 0.0005 
1505 1 -0.00808355 -0.00836784 0.000499579 3.6796e-05 -8.10227e-06 -1.78965e-05 3.88141e-08 -8.13254e-09 2.18738e-09 -1.69637e-07 -1.32052e-07 8.48473e-07 0.0005 
2252 1 -0.0061339 -0.00797299 0.000499562 -1.29671e-05 1.93758e-06 6.68744e-06 -9.70544e-09 -1.02275e-08 2.38848e-08 -6.59405e-08 -1.03002e-07 9.1678e-07 0.0005 
2042 1 -0.00233543 -0.00827544 0.00049977 0.000104206 8.43629e-05 -3.49796e-07 -7.99404e-08 -1.28069e-07 -1.39764e-08 2.04588e-08 -1.1761e-07 8.72929e-07 0.0005 
1539 1 -0.0108362 -0.00779962 0.00049823 9.52002e-06 2.28528e-05 2.83561e-08 -1.00591e-08 3.09011e-08 -1.1261e-08 1.19438e-07 -2.54019e-07 1.34431e-06 0.0005 
986 1 -0.00813581 -0.00736937 0.000499743 8.5382e-05 -1.30735e-05 -2.63999e-06 7.02064e-09 5.79707e-09 -1.22743e-08 -2.32334e-07 -9.6505e-08 7.73163e-07 0.0005 
1847 1 -0.00709484 -0.00769816 0.000498568 1.08091e-05 0.000127323 1.60859e-06 -5.20664e-08 8.37614e-10 -2.61673e-08 -1.32905e-07 -8.45971e-08 9.3028e-07 0.0005 
1447 1 -0.0056113 -0.00712061 0.000499677 7.86493e-06 -1.57394e-05 -8.09281e-07 -1.17711e-08 4.86899e-08 4.1358e-09 -3.46829e-08 -6.4211e-08 8.92963e-07 0.0005 
1848 1 -0.00461869 -0.00724128 0.000498623 -2.55288e-05 -1.28815e-05 1.36264e-06 3.30053e-08 -3.29412e-08 -7.80525e-09 -4.4625e-08 -5.75957e-09 9.30767e-07 0.0005 
2417 1 -0.00359462 -0.00736393 0.000499526 1.57533e-05 1.58182e-05 -4.77523e-06 3.09281e-09 -5.97698e-08 6.75247e-09 -4.07251e-08 -2.3332e-08 9.04533e-07 0.0005 
1462 1 -0.00259624 -0.00730978 0.000498305 3.81085e-05 -1.28931e-05 -4.10473e-06 2.09597e-08 2.42637e-09 2.58525e-09 -2.0811e-08 -7.75058e-08 8.75462e-07 0.0005 
46 1 -0.00131867 -0.0078408 0.000499722 8.4835e-05 3.85932e-05 -7.37789e-06 -1.64869e-07 -8.29954e-08 1.2769e-08 7.38364e-08 -2.80648e-07 9.63812e-07 0.0005 
1432 1 -0.000185976 -0.0078723 0.000499159 -1.47449e-05 8.8449e-08 -7.40394e-06 -3.20885e-08 -5.63642e-08 4.21825e-08 5.91897e-08 -1.35591e-07 8.29865e-07 0.0005 
2195 1 -0.0116001 -0.00660467 0.000498478 -5.10819e-05 0.000116073 1.4853e-06 -5.85976e-08 1.16387e-07 5.04655e-09 2.89625e-07 -1.06983e-07 1.54718e-06 0.0005 
1429 1 -0.0105923 -0.00682984 0.000499791 6.46859e-05 -5.077e-06 -3.10281e-06 2.80591e-08 -1.16598e-08 7.42701e-10 1.41321e-07 -1.26189e-07 9.39386e-07 0.0005 
551 1 -0.00959728 -0.00692976 0.000498529 3.7988e-05 -8.44579e-05 2.01752e-05 -6.65881e-08 -7.8701e-08 -2.15608e-08 -4.25818e-08 -1.2121e-07 8.59394e-07 0.0005 
490 1 -0.00778289 -0.00635338 0.000499092 7.7152e-05 -3.05077e-05 8.31038e-06 -1.6974e-08 2.52297e-09 -1.97122e-08 -2.39997e-07 -6.27351e-08 8.3183e-07 0.0005 
1485 1 -0.00646537 -0.00657052 0.000499756 4.61132e-05 -2.07771e-05 2.20074e-06 -2.53855e-08 -5.7374e-10 -3.53417e-08 -9.66699e-08 -9.1397e-08 9.0341e-07 0.0005 
74 1 -0.00405033 -0.00639662 0.000499586 1.69394e-06 -6.5717e-05 1.53733e-05 -2.10657e-08 -1.97828e-08 -1.29736e-08 7.87751e-08 6.21636e-08 8.23184e-07 0.0005 
606 1 -0.010982 -0.00581912 0.000500294 -3.04358e-05 0.000109472 5.41008e-06 -7.01915e-08 1.38491e-07 1.49682e-09 2.42163e-07 -6.38951e-08 1.03204e-06 0.0005 
1293 1 -0.00999958 -0.00600394 0.00049966 -2.06447e-05 8.63863e-05 -4.44393e-06 -8.77867e-08 7.99893e-08 -2.30628e-08 1.93205e-07 -4.23546e-08 8.9289e-07 0.0005 
1263 1 -0.00884617 -0.00626961 0.000499789 1.93446e-05 -1.13028e-05 4.95164e-06 -2.8785e-08 -5.67092e-10 1.6857e-08 -1.05529e-07 -1.05973e-07 8.00074e-07 0.0005 
1248 1 -0.00701833 -0.00570918 0.000499737 3.30037e-05 -2.08624e-06 -1.67434e-05 -8.39205e-08 7.18467e-08 2.16549e-08 -1.82271e-07 -4.36925e-08 8.59424e-07 0.0005 
1101 1 -0.00560421 -0.0060109 0.00049843 2.67076e-05 3.56673e-05 -3.91748e-06 5.26999e-09 -5.80846e-08 -9.98787e-10 -9.23262e-09 -5.18197e-08 9.03293e-07 0.0005 
817 1 -0.004678 -0.00561496 0.000499277 -1.67232e-05 1.25968e-05 -6.47936e-06 -1.29601e-08 -9.9004e-08 9.62805e-09 8.53057e-08 7.12932e-08 8.24671e-07 0.0005 
1969 1 -0.00335355 -0.00559107 0.000498912 -8.55788e-06 -1.08803e-05 -1.12228e-05 -1.58308e-08 -1.632e-08 -4.58093e-09 -1.18913e-07 2.77381e-11 7.99989e-07 0.0005 
266 1 -0.00225358 -0.00609135 0.000498439 -1.31905e-05 -4.78881e-06 -1.09295e-05 1.65979e-09 -1.17031e-08 5.73766e-11 -2.00076e-07 -1.02722e-07 7.88638e-07 0.0005 
1477 1 -0.000920767 -0.00626483 0.000498893 -7.66606e-06 6.9196e-05 -2.42154e-08 2.62132e-08 -7.89702e-09 -1.69831e-08 4.84219e-08 -1.51323e-07 9.34395e-07 0.0005 
740 1 -8.82859e-05 -0.00558948 0.000499452 9.08039e-06 3.18412e-05 -2.11692e-05 3.23015e-08 9.47597e-09 9.38e-10 1.91655e-07 -6.16968e-08 7.62948e-07 0.0005 
1091 1 -0.0121733 -0.00548338 0.000498278 -6.79286e-05 0.000119182 1.03904e-05 -6.06907e-08 9.28565e-08 -1.30823e-10 2.26339e-07 -6.25695e-08 1.60051e-06 0.0005 
900 1 -0.0113648 -0.00489567 0.000499586 -6.27564e-05 8.95446e-05 2.44531e-07 -1.3697e-07 7.93575e-08 1.73623e-08 1.60252e-07 -7.19054e-08 8.59614e-07 0.0005 
1315 1 -0.0103187 -0.00483703 0.000498474 0.000498817 4.49113e-05 2.94707e-05 -1.82024e-08 5.72904e-08 -4.43379e-09 1.61031e-07 -4.89106e-08 8.72472e-07 0.0005 
53 1 -0.00867724 -0.00528399 0.00049797 6.64669e-05 -4.48092e-06 2.03363e-05 -6.03018e-08 4.06592e-08 -7.66001e-09 -3.94744e-08 -1.32971e-07 8.31888e-07 0.0005 
93 1 -0.00732204 -0.00475649 0.000499466 4.65756e-05 1.80016e-05 -1.43529e-05 6.70908e-08 1.27575e-07 -3.16019e-08 -7.04265e-08 -7.96386e-08 8.41261e-07 0.0005 
1403 1 -0.00564693 -0.00495089 0.000499728 1.13828e-06 -3.43973e-05 -1.4279e-05 6.40424e-08 9.64624e-08 2.86918e-08 -1.04608e-09 2.2761e-08 8.46479e-07 0.0005 
2181 1 -0.00395129 -0.00479065 0.000498879 -3.20321e-07 2.54893e-06 -1.43416e-05 -2.3845e-08 -3.45307e-08 -1.17533e-08 -1.04089e-07 2.63304e-08 7.80654e-07 0.0005 
152 1 -0.00257361 -0.00496693 0.000499962 4.19135e-07 1.3107e-05 1.19226e-05 -2.72994e-08 -1.11912e-08 3.1982e-09 -1.67245e-07 6.81397e-09 9.46169e-07 0.0005 
262 1 -0.000967037 -0.0051127 0.000499501 -2.8255e-06 -1.31702e-05 -1.20236e-05 5.13571e-08 -7.78975e-08 2.55362e-08 5.5185e-08 2.55478e-08 9.65556e-07 0.0005 
890 1 -0.0125486 -0.00455733 0.000499615 -3.15022e-05 0.000166147 2.99668e-05 -6.7699e-08 1.02568e-07 2.17501e-08 9.67518e-08 -5.53081e-08 1.44971e-06 0.0005 
2 1 -0.0108919 -0.00401494 0.000499779 4.7093e-05 1.0737e-06 -8.38851e-06 -6.67377e-08 -2.03503e-08 -1.54857e-08 7.63283e-08 -9.27563e-08 7.91765e-07 0.0005 
12 1 -0.00938942 -0.00444833 0.000499494 9.21231e-06 -0.000126745 -8.67736e-06 -7.17428e-08 2.02939e-08 -2.0326e-08 1.74267e-08 -9.62306e-08 8.42082e-07 0.0005 
1415 1 -0.00839694 -0.00432508 0.00049873 4.43218e-05 3.22316e-06 -3.49218e-06 4.47547e-09 1.24062e-09 -5.45864e-08 -2.88426e-08 -9.69031e-08 8.30012e-07 0.0005 
2064 1 -0.00595677 -0.0040005 0.000497898 1.52023e-05 -3.13137e-05 9.53732e-06 -5.96512e-08 9.84442e-09 -9.40397e-09 1.60854e-08 5.249e-08 8.28943e-07 0.0005 
1452 1 -0.0049572 -0.00399992 0.000499616 8.90531e-06 -8.69238e-05 1.31728e-06 -5.55311e-08 -4.30017e-08 1.3947e-08 -1.33581e-08 4.48318e-08 7.94209e-07 0.0005 
1459 1 -0.00317076 -0.00416556 0.000498712 -1.3548e-05 1.08185e-05 -2.04482e-05 -4.32534e-08 -2.56501e-08 -8.53807e-09 -1.49981e-07 4.69646e-08 9.6185e-07 0.0005 
1507 1 -0.00173755 -0.0044201 0.000499735 -4.38027e-05 0.000103651 -5.05318e-06 1.68136e-08 -1.0458e-07 -1.94973e-08 -6.73561e-08 8.47359e-08 9.90521e-07 0.0005 
2217 1 -0.000782018 -0.00412846 0.000499001 -1.6282e-05 5.19064e-05 -1.17691e-05 -1.46395e-08 -1.11895e-07 -3.22919e-09 1.24533e-07 1.95554e-07 9.89325e-07 0.0005 
982 1 -0.0128879 -0.00348335 0.000498818 -1.69617e-05 5.36821e-05 1.0418e-05 -9.60621e-10 -3.96153e-09 -9.83189e-10 5.90534e-08 -1.30385e-08 1.43026e-06 0.0005 
1544 1 -0.00998495 -0.00359416 0.000499743 2.3961e-05 -4.87958e-05 1.6433e-06 -2.04996e-09 -1.11298e-07 -8.54687e-09 1.44651e-08 -6.7667e-08 8.29154e-07 0.0005 
2007 1 -0.00898798 -0.00351876 0.000499947 8.98295e-06 -1.54066e-05 -4.34047e-06 -4.36638e-09 -9.11496e-09 -4.49154e-09 -6.04656e-08 -5.14888e-08 8.68877e-07 0.0005 
1617 1 -0.00781745 -0.00350663 0.000499176 6.34254e-05 1.22292e-05 1.25425e-05 -1.30059e-07 -1.4066e-07 -6.09374e-09 -1.31573e-08 -3.57761e-08 8.30782e-07 0.0005 
230 1 -0.00404069 -0.00359608 0.000499241 -2.02503e-05 -2.59675e-05 -2.76028e-05 -3.57048e-09 -3.41175e-08 -1.27634e-08 -4.2374e-08 5.95273e-08 7.88571e-07 0.0005 
1067 1 -0.002388 -0.00354229 0.000498884 4.06766e-05 3.20848e-05 -2.83941e-05 2.57165e-08 -3.65041e-08 1.62529e-08 -1.20607e-07 1.05355e-07 9.04095e-07 0.0005 
9 1 -0.0130632 -0.00247666 0.000499763 -1.64667e-05 3.71532e-05 -2.51153e-06 -6.54401e-09 4.44577e-08 -1.48723e-09 8.44025e-08 3.40659e-08 1.45336e-06 0.0005 
2406 1 -0.0116639 -0.00306343 0.000498525 2.95691e-05 -1.19885e-05 9.03673e-06 -2.6149e-08 1.18769e-08 -3.60383e-09 7.96394e-08 -2.72215e-08 8.39601e-07 0.0005 
178 1 -0.00953605 -0.00268234 0.000499791 4.22127e-05 3.78766e-05 4.1526e-06 5.5391e-09 -3.20614e-08 -2.63658e-09 -2.89085e-08 -1.7693e-08 8.69406e-07 0.0005 
1238 1 -0.00853125 -0.00262946 0.000499083 2.48708e-05 -4.083e-05 3.31062e-07 -3.62261e-08 -5.80946e-09 1.98648e-08 -2.28688e-08 -9.61181e-09 8.49968e-07 0.0005 
1610 1 -0.00704891 -0.002717 0.00049979 3.72081e-05 -5.87306e-05 7.01655e-09 3.34871e-08 1.96376e-08 9.8285e-12 4.23349e-08 2.22719e-08 8.2414e-07 0.0005 
391 1 -0.00605627 -0.00288207 0.000499485 3.84278e-05 -7.65846e-06 -1.07081e-05 -3.2239e-08 -5.9303e-09 3.24409e-10 1.10295e-07 4.64422e-08 8.08105e-07 0.0005 
1178 1 -0.00506391 -0.00300542 0.00049979 2.87392e-05 -5.9377e-05 -1.80429e-06 -9.01207e-08 -1.22681e-08 -3.89812e-08 8.97891e-08 5.4273e-08 8.0468e-07 0.0005 
1798 1 -0.00415544 -0.00258752 0.000499742 -1.61827e-05 -1.14429e-05 -5.42839e-06 -4.48808e-08 -8.3802e-08 1.51942e-08 1.02499e-07 5.58e-08 8.04674e-07 0.0005 
619 1 -0.00323266 -0.00300704 0.000499752 -2.31825e-05 1.40078e-05 1.09302e-05 -2.15412e-08 -4.67292e-08 2.33075e-08 -6.62328e-08 1.06634e-07 7.75573e-07 0.0005 
38 1 -0.00236539 -0.00249166 0.000499572 2.97878e-05 7.49771e-05 -8.68985e-07 -1.03342e-07 -6.07e-08 1.03552e-08 -9.87545e-08 1.47216e-07 7.66046e-07 0.0005 
736 1 -0.000793008 -0.0029529 0.000499654 -1.91554e-05 5.09033e-05 1.82846e-05 5.95507e-09 -4.02472e-08 3.34879e-08 -9.47038e-09 1.02631e-07 9.60565e-07 0.0005 
186 1 -0.0124291 -0.0017035 0.000498894 7.56329e-06 9.06109e-06 8.78136e-07 1.33633e-08 3.22687e-08 4.51066e-09 1.36186e-07 6.89444e-08 9.73383e-07 0.0005 
459 1 -0.0114511 -0.00208761 0.000499834 2.62606e-05 2.22883e-06 7.04317e-06 -1.51546e-08 1.90348e-08 -7.52191e-10 1.51018e-07 5.52718e-08 8.65211e-07 0.0005 
866 1 -0.0104732 -0.00233338 0.000499383 1.47568e-05 -7.22379e-06 6.1359e-06 -3.02689e-08 -2.74341e-08 -1.10594e-08 7.4396e-08 -4.51332e-09 8.0809e-07 0.0005 
1411 1 -0.00938049 -0.00168319 0.000499533 3.04964e-05 -4.28025e-05 -2.53366e-06 2.10537e-08 2.6377e-09 -4.26485e-08 6.74128e-08 4.58129e-10 7.44221e-07 0.0005 
1278 1 -0.00775115 -0.00200468 0.000499834 7.46072e-05 -6.56698e-05 -1.07141e-05 -7.24976e-08 1.18665e-08 1.26302e-08 1.79903e-08 3.0917e-08 8.2164e-07 0.0005 
62 1 -0.00595982 -0.00187125 0.00049979 0.000183247 0.000111806 5.38955e-09 7.74444e-08 2.6996e-08 1.22476e-11 1.00221e-07 3.54057e-08 8.04456e-07 0.0005 
1669 1 -0.00496891 -0.00200595 0.00049979 0.000162498 0.000116636 8.30129e-06 -1.59073e-07 1.43114e-07 2.24847e-08 1.05476e-07 1.7535e-08 7.77146e-07 0.0005 
695 1 -0.00125322 -0.00197896 0.000499196 1.01427e-05 7.25199e-05 8.40999e-07 -1.08271e-07 -1.65509e-08 -2.42676e-08 -5.76506e-08 5.40988e-08 9.33961e-07 0.0005 
1530 1 -0.0132944 -0.00120359 0.000499477 -2.41016e-06 -8.42215e-06 1.01269e-06 -2.29274e-09 1.70482e-09 3.87703e-09 1.07473e-07 1.06937e-07 1.53226e-06 0.0005 
1654 1 -0.0107154 -0.00136379 0.000499321 1.35393e-05 -9.6494e-06 4.75765e-06 9.48863e-09 -3.26489e-08 -3.34297e-09 1.57753e-07 9.78448e-08 8.82355e-07 0.0005 
299 1 -0.00771105 -0.00098706 0.000499773 -4.88908e-05 -5.59174e-05 -9.20413e-06 -2.96935e-08 8.19501e-08 1.06966e-08 -7.92836e-09 8.51675e-08 7.98518e-07 0.0005 
98 1 -0.0066792 -0.00106298 0.000499005 4.81712e-05 7.02752e-06 -1.81694e-06 -5.48418e-08 -8.37618e-09 2.46068e-09 4.86301e-08 6.37281e-08 7.96214e-07 0.0005 
1060 1 -0.00391757 -0.00157343 0.000499046 2.2379e-05 4.16777e-05 -1.30863e-05 3.47322e-08 1.13503e-08 -1.92809e-08 9.67672e-09 -7.00105e-08 7.21742e-07 0.0005 
781 1 -0.0021725 -0.00126281 0.000499778 2.03746e-06 0.0001335 3.88605e-06 1.17975e-07 5.61278e-08 1.06373e-08 -1.44623e-07 -8.16472e-08 7.29136e-07 0.0005 
1955 1 -0.00034347 -0.00148408 0.000499344 2.05126e-05 3.56115e-05 -1.49673e-05 -3.37834e-08 2.49961e-08 2.47194e-08 3.94822e-08 5.17414e-08 8.19481e-07 0.0005 
1675 1 -0.0124418 -0.000620845 0.00049932 9.46462e-06 3.08625e-06 3.3775e-06 2.54634e-08 2.70322e-08 8.45213e-10 1.26065e-07 1.43992e-07 9.72432e-07 0.0005 
2125 1 -0.0115131 -0.000115836 0.000498752 -5.47627e-06 2.29508e-05 1.09774e-05 -4.23276e-08 6.40409e-08 7.75426e-09 2.81897e-08 1.9305e-07 9.34664e-07 0.0005 
2169 1 -0.00953428 -0.000695464 0.000499911 7.80522e-05 -2.67659e-05 -1.48149e-05 2.8945e-08 -9.64311e-09 -4.22859e-08 8.49763e-08 2.84718e-08 7.34999e-07 0.0005 
6577 1 -0.00859177 -0.000364117 0.000498531 8.02445e-05 -2.92846e-06 6.00537e-06 -6.30882e-09 5.26273e-08 6.02335e-10 1.78268e-08 6.02163e-08 7.65173e-07 0.0005 
6638 1 -0.00684032 -7.73713e-05 0.000499005 6.40518e-05 1.48827e-05 -6.27691e-06 -1.31557e-07 -5.69654e-09 -3.99674e-09 -1.121e-09 8.53122e-08 7.48404e-07 0.0005 
1600 1 -0.00577038 -0.000646594 0.000498824 5.59533e-05 1.59592e-05 -1.53905e-05 -1.33642e-07 5.34125e-08 2.2262e-08 4.65492e-08 3.22443e-08 7.96069e-07 0.0005 
108 1 -0.00326177 -0.00074817 0.000498892 2.68892e-05 3.4379e-05 -9.80974e-06 -5.17038e-08 3.68459e-09 1.10053e-08 -8.80249e-08 -1.34866e-07 7.17724e-07 0.0005 
288 1 -0.00178196 -0.0003422 0.000499278 2.08376e-05 7.47627e-05 -2.72748e-05 -5.5242e-08 1.6534e-08 -4.30615e-08 -1.1504e-08 -7.81907e-08 7.59664e-07 0.0005 
1934 1 -0.000388079 -0.000485454 0.000499316 2.64979e-06 3.14149e-05 -2.43959e-05 5.16136e-08 2.77398e-08 4.73323e-08 8.76047e-08 4.70183e-08 7.94437e-07 0.0005 
1180 1 -0.00374249 -0.0128161 0.000927002 -4.02985e-06 1.70269e-06 -5.4626e-06 8.57889e-09 -4.31102e-08 -2.03726e-08 2.10063e-08 4.30625e-08 1.74852e-06 0.0005 
1047 1 -0.00271693 -0.0130735 0.000938357 -9.99688e-06 5.6578e-06 7.98797e-06 -2.61984e-09 -3.50209e-08 -1.58919e-08 1.80029e-08 3.20562e-08 1.88623e-06 0.0005 
1971 1 -0.000136812 -0.0126738 0.00125359 -1.08907e-05 -1.15295e-05 1.36332e-05 1.33291e-08 -5.7862e-08 2.11737e-09 -4.55127e-08 -2.61719e-08 1.79399e-06 0.0005 
2053 1 -0.00467572 -0.0125047 0.000750565 2.51214e-06 2.06316e-06 -1.06598e-07 2.01627e-08 -1.16708e-08 -3.44771e-08 -1.97354e-08 8.20994e-08 1.63317e-06 0.0005 
848 1 -0.00142093 -0.0124637 0.0012556 -6.42624e-06 5.26636e-06 -2.76003e-06 -4.68511e-09 -5.42045e-08 -4.09883e-08 7.58034e-09 1.05466e-08 2.20776e-06 0.0005 
427 1 -0.00477364 -0.0110295 0.00117755 7.91644e-06 3.75816e-05 -2.90296e-05 -1.22317e-07 -1.39935e-07 9.31558e-09 -1.45128e-08 6.37775e-08 1.86463e-06 0.0005 
2081 1 -0.00166443 -0.0106897 0.000832082 3.55378e-06 -1.13158e-05 -2.29933e-06 -5.76565e-08 -1.11458e-08 2.71233e-08 -4.02653e-08 2.21844e-09 1.39747e-06 0.0005 
1375 1 -0.00811263 -0.00947984 0.000933541 2.53502e-05 -3.63336e-05 1.51556e-05 -4.93819e-14 1.18539e-07 -3.58269e-08 -2.17058e-07 -2.25986e-07 1.52426e-06 0.0005 
1658 1 -0.0063439 -0.0100616 0.000540044 -2.95769e-05 -1.26736e-05 2.2958e-05 -3.15222e-08 7.49691e-08 4.4485e-08 -8.17791e-08 -6.09911e-08 9.44374e-07 0.0005 
110 1 -0.00455664 -0.0100573 0.00109106 -7.49181e-06 4.95296e-05 9.74662e-06 -5.27557e-08 -1.50332e-07 -3.27916e-08 -2.41121e-08 -2.06267e-08 1.73415e-06 0.0005 
1487 1 -0.00223741 -0.00992797 0.00125088 2.29407e-05 -1.70617e-05 -4.51439e-06 -1.00863e-07 -4.67858e-08 -3.8882e-08 -3.5338e-08 -6.63847e-08 1.88801e-06 0.0005 
2090 1 -0.00144007 -0.00973384 0.000648329 4.76545e-06 -1.11486e-06 -3.77124e-05 1.27784e-08 -7.79603e-08 -6.62097e-08 -9.41913e-09 -8.44883e-08 9.74631e-07 0.0005 
2461 1 -0.0095859 -0.00929403 0.00111745 5.94988e-05 -5.58463e-05 2.06826e-05 6.71198e-10 -8.7023e-09 -1.56976e-08 -8.56474e-08 -2.29589e-07 1.91024e-06 0.0005 
1750 1 -0.00397325 -0.0092528 0.000989729 6.97093e-05 1.55903e-05 2.43445e-05 -1.11864e-07 -1.21687e-07 -7.32211e-08 2.02616e-08 -1.49939e-07 1.69207e-06 0.0005 
243 1 -0.00695454 -0.00839275 0.00122035 -1.91538e-05 -3.73504e-05 -8.9345e-05 7.11607e-08 -1.10207e-07 -1.09902e-07 -9.02508e-08 -6.10936e-08 2.5544e-06 0.0005 
948 1 -0.00517835 -0.00801647 0.00079008 -5.98598e-06 -2.88209e-05 -1.52529e-05 -2.9694e-08 1.44109e-08 2.56089e-09 -5.23153e-08 -8.89551e-08 1.41516e-06 0.0005 
793 1 -0.00403265 -0.00823066 0.000735715 0.00010381 -2.95168e-05 4.94347e-06 -8.54464e-09 -6.75466e-08 -2.89678e-08 -3.80876e-08 -7.44369e-08 1.18011e-06 0.0005 
1694 1 -0.0017036 -0.00853223 0.00123104 2.95088e-05 -1.06555e-05 4.59406e-06 -7.07188e-08 -1.17047e-07 -3.3181e-08 -1.11793e-09 -1.54621e-07 1.90237e-06 0.0005 
842 1 -0.0100227 -0.00764266 0.00105463 -5.28076e-06 -5.41566e-05 9.27827e-05 -4.12632e-08 -6.45985e-08 5.67643e-08 -4.97964e-08 -2.25876e-07 1.73628e-06 0.0005 
239 1 -0.0090106 -0.00742001 0.00114166 3.95195e-05 -8.0304e-05 1.52977e-05 -8.57575e-08 -1.4237e-08 -1.1562e-08 -2.26696e-07 -1.39752e-07 1.88639e-06 0.0005 
13 1 -0.00305085 -0.00787019 0.00118801 6.90353e-05 1.3272e-05 2.18139e-05 -4.71151e-08 -3.46907e-08 -6.81047e-08 -1.69576e-08 -6.04592e-08 2.00015e-06 0.0005 
1059 1 -0.00717148 -0.00674203 0.00118673 4.96457e-05 -1.62298e-05 3.80278e-05 -7.63149e-08 -1.1038e-07 -8.4021e-08 -2.12808e-07 -8.8083e-08 1.939e-06 0.0005 
830 1 -0.00488228 -0.00642242 0.00105206 -6.6335e-06 -5.48245e-06 4.52394e-06 -2.26496e-08 -1.2381e-07 -3.63109e-08 6.31398e-08 -4.17977e-09 1.69933e-06 0.0005 
515 1 -0.00310657 -0.00650848 0.000807041 1.43305e-05 -2.0492e-05 4.66717e-06 -2.29214e-08 -2.88436e-09 5.47888e-09 -1.46521e-07 -5.36696e-08 1.24429e-06 0.0005 
2336 1 -0.00168174 -0.00691038 0.000543913 2.6032e-05 2.66374e-05 2.20939e-06 2.02253e-08 -1.88827e-08 -1.03958e-08 -3.10563e-08 -1.53653e-07 8.51083e-07 0.0005 
2421 1 -0.000539781 -0.00706544 0.000971071 1.18052e-05 2.46481e-06 -3.92875e-06 -1.39603e-08 -2.36849e-08 2.20158e-08 7.83823e-08 -2.23376e-07 1.74076e-06 0.0005 
1645 1 -0.00625362 -0.00559927 0.00113449 1.40154e-05 -7.0623e-06 2.20493e-06 -5.07994e-08 -4.38893e-08 -3.82404e-08 -3.27791e-08 -7.71871e-08 1.95507e-06 0.0005 
100 1 -0.00401407 -0.00569155 0.00124229 1.28824e-05 -8.87955e-06 -2.63929e-05 -2.49002e-08 -1.0746e-07 1.43544e-08 8.86617e-08 7.10811e-08 1.95334e-06 0.0005 
2208 1 -0.00152697 -0.00571275 0.00106989 -3.79553e-05 3.35726e-05 -2.1927e-05 -8.43131e-09 -5.21572e-08 4.09433e-09 -6.3878e-08 -7.3631e-08 1.82804e-06 0.0005 
220 1 -0.00940305 -0.00552037 0.00113971 2.29741e-05 -4.018e-06 1.57039e-05 -7.88065e-08 2.21172e-08 -6.22778e-08 9.29097e-08 -9.28496e-08 1.92515e-06 0.0005 
1211 1 -0.00785033 -0.00549984 0.00101444 3.33976e-05 -5.74468e-05 6.23162e-05 -1.16681e-07 -3.67216e-08 5.77967e-08 -1.33253e-07 -9.09051e-08 1.59659e-06 0.0005 
565 1 -0.00328916 -0.00481749 0.00124697 1.11622e-05 2.34775e-05 -4.31918e-05 -7.75403e-08 -4.32978e-08 -4.05283e-09 -1.08857e-07 1.15957e-08 2.01317e-06 0.0005 
2300 1 -0.0118218 -0.00397847 0.000867908 4.72888e-05 2.41545e-05 9.04077e-05 -5.26241e-08 3.70382e-08 8.47332e-08 7.49453e-08 -5.28414e-08 1.53032e-06 0.0005 
1986 1 -0.00647343 -0.00462698 0.00107846 -6.56708e-06 -3.66933e-06 3.78322e-05 -9.59992e-08 -1.23019e-08 -5.56092e-08 -3.23573e-08 3.5024e-11 1.74887e-06 0.0005 
1236 1 -0.00459836 -0.00458836 0.00123169 4.36719e-05 -1.28005e-05 3.84541e-06 -7.60394e-08 -1.07072e-07 -2.5859e-08 -6.99994e-08 6.01252e-09 1.89881e-06 0.0005 
483 1 -0.00250587 -0.00419639 0.00124443 -1.53631e-05 4.1436e-05 -4.68558e-05 -8.57711e-08 -6.61447e-08 -1.23116e-08 -2.1538e-07 3.17567e-08 2.37833e-06 0.0005 
696 1 -0.00687401 -0.00370442 0.000762061 3.89495e-05 -6.1549e-05 -4.93731e-07 -1.38147e-07 -1.81517e-07 4.71569e-08 -6.35064e-10 -1.53745e-08 1.20765e-06 0.0005 
704 1 -0.00148056 -0.00354563 0.000918266 -8.06246e-05 0.000200605 0.000186331 -4.0306e-08 -7.32437e-08 6.0831e-08 5.83202e-10 1.08203e-07 1.58663e-06 0.0005 
2160 1 -7.6048e-05 -0.0035571 0.000914602 -1.54295e-05 4.50562e-05 -2.86493e-05 -7.56363e-08 -3.12349e-08 -4.0882e-09 3.36614e-08 8.58679e-08 1.50327e-06 0.0005 
532 1 -0.0107955 -0.00314571 0.000984192 3.60919e-05 -2.44607e-05 2.40359e-05 -2.81918e-08 -2.99566e-08 -4.60774e-08 3.29924e-08 -8.79009e-08 1.57576e-06 0.0005 
1201 1 -0.00782836 -0.00278654 0.00119263 0.000149095 0.000132661 -0.000108274 -8.85788e-08 -5.69863e-08 1.06742e-08 3.71991e-10 -2.54548e-10 1.97589e-06 0.0005 
2224 1 -0.00855769 -0.00179951 0.00105544 8.07371e-05 7.32903e-06 -7.33898e-05 -2.4587e-08 4.14118e-08 -6.72708e-09 9.48096e-09 1.65668e-08 1.58551e-06 0.0005 
1596 1 -0.00697407 -0.00180726 0.00109659 8.25203e-05 -3.4902e-05 -1.46155e-05 -1.07086e-07 2.83426e-08 -1.50114e-08 3.1903e-08 4.69587e-08 1.62751e-06 0.0005 
2261 1 -0.00298369 -0.00176519 0.000798881 2.24291e-05 6.48058e-05 -6.4246e-06 1.01398e-08 4.4196e-08 -8.62274e-09 -9.225e-08 -9.8448e-09 1.18397e-06 0.0005 
78 1 -0.0116477 -0.00115225 0.000789706 2.00928e-05 1.36912e-05 9.32862e-06 2.46686e-08 4.53494e-08 -1.36559e-08 1.94262e-07 1.3681e-07 1.42551e-06 0.0005 
367 1 -0.0100623 -0.00114069 0.00122267 5.35843e-05 -1.52384e-05 -3.09557e-05 3.76097e-08 7.56288e-09 -3.6805e-08 1.55556e-07 5.21552e-08 1.92149e-06 0.0005 
5 1 -0.00506428 -0.00114333 0.00100157 4.93654e-05 4.7379e-05 -3.39126e-05 -1.2865e-07 -1.06668e-08 -7.63545e-08 5.14947e-08 -6.41095e-08 1.46307e-06 0.0005 
1357 1 -0.00116946 -0.00104836 0.000853335 3.51399e-05 7.73991e-05 -1.52767e-05 -1.38902e-07 -4.11632e-08 -3.06711e-08 -3.38001e-08 -1.43121e-08 1.35162e-06 0.0005 
967 1 -0.0133494 -0.00020758 0.000558673 9.56337e-07 -8.53093e-06 4.73721e-06 9.20423e-09 3.75723e-09 4.70408e-09 1.08271e-07 2.02433e-07 1.58861e-06 0.0005 
2095 1 -0.0104801 -0.000402335 0.000632953 7.09053e-05 -1.66484e-05 -2.60604e-05 3.22699e-08 -3.59708e-08 -2.0927e-08 7.20556e-08 1.27759e-07 1.03393e-06 0.0005 
42 1 -0.00418106 -0.000691095 0.000887879 4.75873e-05 4.03846e-05 -2.0061e-05 -1.10013e-07 -1.93387e-08 -9.26654e-08 5.06333e-09 -1.8463e-07 1.23192e-06 0.0005 
548 1 -0.00252054 -0.000549896 0.00113952 2.86946e-05 2.82685e-05 -2.45563e-05 -6.06402e-08 3.86491e-08 -3.94243e-08 -9.67342e-08 -1.37886e-07 1.76634e-06 0.0005 
805 1 -0.00292359 -0.0130111 0.00191258 1.18313e-06 -2.73998e-05 3.05259e-05 -2.63117e-09 -6.07036e-08 -1.22688e-08 -2.63418e-08 2.31545e-08 3.00615e-06 0.0005 
643 1 -0.00199078 -0.0132021 0.00161209 -6.98567e-06 1.03059e-06 8.86882e-07 4.37194e-09 -1.43134e-08 -1.12107e-08 -7.75026e-09 5.30308e-09 2.70105e-06 0.0005 
1951 1 -0.000906389 -0.0133193 0.00131051 -4.5349e-05 -6.81362e-06 -3.157e-05 1.61628e-07 -2.30442e-08 -1.42838e-08 -6.98293e-09 1.99481e-09 2.27479e-06 0.0005 
2416 1 -0.000182221 -0.0133488 0.00199921 -2.91284e-05 4.78922e-07 -4.8652e-05 1.5829e-07 -6.71008e-08 1.7694e-08 -9.7521e-08 -3.97852e-09 2.9329e-06 0.0005 
2017 1 -0.00570903 -0.0119623 0.00127113 -1.59565e-05 9.57543e-05 2.15735e-05 -1.19927e-07 -9.47806e-08 -9.94489e-09 -8.3747e-08 1.19041e-07 2.23279e-06 0.0005 
527 1 -0.00434978 -0.0126217 0.00169676 5.47558e-06 -4.41567e-06 2.05546e-06 -5.5676e-08 -1.4402e-08 -1.05886e-07 -2.20432e-09 4.81736e-08 2.67174e-06 0.0005 
2327 1 -0.00336573 -0.0120794 0.00148707 -9.03674e-06 -6.92152e-06 5.36867e-06 -1.56025e-09 -6.5587e-08 -2.68775e-08 -1.02439e-09 5.44874e-08 2.39407e-06 0.0005 
886 1 -0.00238653 -0.0122703 0.00143064 -1.42194e-05 2.56952e-06 -3.81648e-06 -2.21844e-09 -5.33127e-08 -7.16073e-08 -1.19205e-08 2.16658e-08 2.30132e-06 0.0005 
125 1 -0.000677412 -0.0119467 0.00167535 -1.51295e-06 2.03858e-06 9.70733e-06 -4.00079e-08 -6.83368e-08 -2.78277e-08 -7.96464e-08 1.23741e-08 2.63764e-06 0.0005 
2456 1 -0.00683286 -0.0114692 0.00140022 -6.67147e-05 2.89397e-05 8.12731e-06 5.52311e-08 2.10603e-08 -1.8387e-08 -1.18478e-07 1.16621e-07 2.35704e-06 0.0005 
461 1 -0.0054233 -0.0112593 0.00193442 2.37736e-05 -3.10009e-05 1.95446e-06 -7.79144e-08 6.26997e-08 -1.38085e-07 -4.28163e-08 9.51547e-08 3.01273e-06 0.0005 
2263 1 -0.0045133 -0.0116719 0.00196201 1.94153e-05 -1.3739e-05 1.37067e-05 -1.21564e-07 -2.6095e-08 -2.26714e-07 7.00885e-09 7.12879e-08 3.01315e-06 0.0005 
1851 1 -0.00379686 -0.0111952 0.00131174 -2.38199e-06 1.01513e-05 9.22218e-06 -9.88414e-08 -1.37139e-07 -1.03952e-07 -2.17759e-09 9.16656e-08 2.17498e-06 0.0005 
947 1 -0.00270778 -0.0113269 0.0013544 -2.97307e-05 -9.30625e-06 -2.27372e-06 -2.8653e-08 -8.26668e-08 -2.32505e-08 -3.23558e-08 5.45487e-08 2.20305e-06 0.0005 
2112 1 -0.00172814 -0.0115214 0.00138137 -2.37911e-05 5.65247e-06 2.84187e-05 -3.53224e-08 -6.51657e-08 -2.79634e-08 -4.81253e-08 2.29616e-08 2.25752e-06 0.0005 