ITEM: TIMESTEP
45000
ITEM: NUMBER OF ATOMS
10000
ITEM: BOX BOUNDS mm mm mm
-0.015 0.015
-0.015 0.015
-0.001 0.0554
ITEM: ATOMS id type x y z vx vy vz fx fy fz f_dragforce[1] f_dragforce[2] f_dragforce[3] radius 
1359 1 -0.00148706 -0.0132644 0.000499732 -1.65628e-05 -2.98248e-07 7.04606e-06 6.94872e-08 3.51862e-08 4.73979e-09 -6.67222e-09 -7.81357e-10 1.28197e-06 0.0005 
637 1 -0.00304768 -0.0122419 0.00049836 5.73499e-06 3.21047e-06 2.10984e-06 -3.19969e-09 7.82405e-09 -4.41659e-09 -1.40316e-08 3.63184e-08 8.49729e-07 0.0005 
1496 1 -0.00207156 -0.0124531 0.00049823 2.27026e-06 -1.81154e-06 6.57083e-07 -1.15103e-08 1.79827e-08 8.92819e-09 -1.38841e-08 1.52044e-08 9.14701e-07 0.0005 
502 1 -0.000772416 -0.0125203 0.000498354 6.1176e-06 -2.23414e-05 4.42796e-06 -1.57245e-08 6.93193e-08 2.05277e-08 -1.13038e-08 -6.92945e-09 8.29533e-07 0.0005 
1195 1 -0.00705856 -0.0110988 0.000499255 -2.06114e-05 -1.99124e-06 -5.00567e-06 7.56862e-08 3.99272e-08 -2.29804e-08 -1.70422e-07 3.80864e-08 1.06048e-06 0.0005 
1356 1 -0.00631254 -0.0117637 0.000499334 -1.31222e-05 5.22546e-06 5.2448e-06 1.75362e-09 -3.35357e-09 -1.33856e-08 -1.30789e-07 1.068e-07 1.19952e-06 0.0005 
939 1 -0.00514976 -0.0116615 0.000499543 -1.80991e-05 -3.35329e-05 -2.46919e-06 3.68288e-08 1.55814e-09 -2.75077e-09 -7.5603e-08 8.5049e-08 8.94374e-07 0.0005 
1758 1 -0.00414973 -0.0116625 0.000499782 -2.53675e-05 -1.67278e-05 1.66626e-06 1.48284e-08 5.04389e-08 4.33916e-09 -3.49942e-08 5.45454e-08 7.77558e-07 0.0005 
656 1 -0.00321845 -0.0112594 0.000498678 -1.31053e-05 2.25666e-06 3.92731e-06 2.18626e-08 1.58588e-08 -4.82136e-09 -3.98874e-08 5.22463e-08 7.94242e-07 0.0005 
758 1 -0.00220787 -0.0114633 0.00049918 -3.69637e-06 1.80556e-06 4.45788e-06 2.09425e-08 1.80472e-08 -1.818e-09 -4.29357e-08 2.3174e-08 8.03505e-07 0.0005 
319 1 -0.00120465 -0.0115135 0.000499759 -4.26199e-05 -2.94465e-05 1.01187e-05 1.18262e-07 6.97353e-08 1.55544e-08 -5.03947e-08 5.02367e-09 8.09121e-07 0.0005 
511 1 -1.52228e-05 -0.0111179 0.000496771 7.71155e-06 -9.01851e-06 -2.84813e-06 -2.70651e-09 4.36975e-09 3.11634e-09 -2.3141e-08 -8.81374e-09 6.9701e-07 0.0005 
1144 1 -0.00800609 -0.0106588 0.000499772 -0.000108881 1.92546e-06 4.04703e-06 -1.81055e-08 1.67021e-08 -4.21197e-08 -2.34759e-07 -5.05685e-08 1.00176e-06 0.0005 
353 1 -0.00578475 -0.0108896 0.000499562 -4.48691e-05 -4.7459e-05 9.5324e-06 4.01212e-09 -4.2035e-08 -1.4789e-08 -9.94235e-08 3.32823e-08 8.22085e-07 0.0005 
1818 1 -0.00393577 -0.0105661 0.000497975 -2.97496e-05 -1.76849e-05 1.43659e-07 4.94649e-09 2.9289e-08 -1.15762e-08 -4.3531e-08 1.68154e-08 7.9179e-07 0.0005 
1873 1 -0.00258481 -0.010488 0.000499591 -9.12311e-06 5.30082e-07 9.58482e-06 3.84558e-08 3.59797e-09 -2.8418e-08 -4.40966e-08 -6.62433e-09 7.88023e-07 0.0005 
2211 1 -0.000755449 -0.0104469 0.000498419 -6.62842e-06 -2.36003e-05 7.90322e-06 5.35325e-08 6.05556e-08 3.12433e-09 -5.88841e-08 -3.42203e-08 7.63346e-07 0.0005 
647 1 -0.00884648 -0.00999942 0.000499352 -6.87747e-05 6.04685e-05 -1.79646e-06 -2.20666e-08 -1.56823e-08 -1.55506e-08 -2.00336e-07 -1.25126e-07 9.80634e-07 0.0005 
542 1 -0.00733083 -0.00992131 0.000499134 -5.68866e-05 -3.77031e-05 -2.39444e-05 -6.24439e-09 5.42435e-08 -1.52291e-08 -1.99774e-07 -1.48294e-07 7.5935e-07 0.0005 
1585 1 -0.00535202 -0.00994945 0.000498522 -5.43167e-05 -0.000110113 -3.40597e-06 -2.56387e-08 -1.0778e-07 -7.47472e-09 -5.41297e-08 -5.5693e-08 8.13556e-07 0.0005 
2142 1 -0.00326016 -0.00975231 0.000499028 -4.31073e-05 -1.37721e-05 -7.52693e-08 7.64968e-08 3.49557e-08 2.06672e-08 -2.44222e-08 -9.17255e-08 7.63994e-07 0.0005 
2330 1 -0.00886657 -0.00899145 0.000497447 -4.15122e-06 3.02853e-05 5.93621e-06 -4.29481e-08 1.2193e-08 -8.63815e-09 -1.93845e-07 -2.04117e-07 7.29133e-07 0.0005 
733 1 -0.00681244 -0.00906596 0.000499037 9.46044e-06 1.4248e-06 -7.18789e-06 3.83622e-08 7.80836e-08 2.86429e-08 -1.39833e-07 -1.58598e-07 8.10268e-07 0.0005 
1443 1 -0.00575814 -0.00889915 0.000499048 -3.37685e-05 -3.26246e-05 -1.35039e-05 4.17437e-08 7.37779e-08 1.23012e-08 -7.99091e-08 -1.80658e-07 7.94988e-07 0.0005 
1221 1 -0.00475935 -0.00887616 0.000498922 -3.68307e-05 -1.43863e-05 6.2097e-06 3.79209e-08 8.75314e-08 -1.67938e-08 -4.3272e-08 -1.94056e-07 7.97018e-07 0.0005 
388 1 -0.00321512 -0.0087537 0.000499692 4.46307e-05 -9.02932e-06 5.36388e-06 -1.19353e-07 -1.07112e-07 1.14727e-08 -2.33937e-08 -1.43178e-07 7.6452e-07 0.0005 
823 1 -0.00236336 -0.0092776 0.000499787 2.2262e-05 -7.78625e-05 -9.63495e-07 -8.99186e-08 1.95055e-07 -9.34832e-09 -1.57893e-08 -1.3475e-07 7.47803e-07 0.0005 
714 1 -0.00108401 -0.00881257 0.000498733 -1.78258e-05 -3.56894e-05 1.0738e-05 -4.66644e-09 5.51165e-08 -3.51208e-08 -2.06198e-08 -1.75526e-07 7.13993e-07 0.0005 
462 1 -8.642e-05 -0.00886712 0.000498594 1.28081e-06 -2.26611e-05 4.29409e-06 -3.53818e-08 5.15219e-08 1.36521e-08 -6.73212e-08 -1.10204e-07 6.68984e-07 0.0005 
529 1 -0.0102059 -0.00860681 0.000499897 -3.97585e-05 4.57234e-05 -1.44896e-05 -1.65916e-08 1.24607e-08 -1.29236e-08 1.40147e-08 -2.70739e-07 1.06431e-06 0.0005 
359 1 -0.00933811 -0.00811138 0.000498447 -2.83155e-05 9.1424e-06 -1.18458e-05 -5.18251e-08 5.58774e-08 -2.66199e-08 -1.64182e-07 -1.71015e-07 7.80432e-07 0.0005 
1505 1 -0.00808493 -0.00836846 0.000499569 8.37222e-06 1.2113e-06 -8.45608e-06 -1.01185e-07 5.39624e-09 2.93034e-08 -1.94322e-07 -1.35665e-07 7.76554e-07 0.0005 
2252 1 -0.00613388 -0.00797305 0.000499437 -1.54375e-05 1.58197e-07 1.27901e-05 4.37836e-08 -4.55768e-08 -7.22878e-08 -1.06471e-07 -1.19482e-07 8.33563e-07 0.0005 
2042 1 -0.00233654 -0.00827619 0.000499787 4.16335e-05 -9.6013e-05 -9.19188e-06 -1.04021e-07 -6.42268e-08 -1.02966e-08 -1.50355e-08 -1.58209e-07 7.87906e-07 0.0005 
1539 1 -0.0108363 -0.00779967 0.000498111 -4.21132e-06 -4.67129e-07 -1.57092e-06 -6.72651e-08 1.01635e-07 4.05489e-09 9.90857e-08 -2.29072e-07 1.23224e-06 0.0005 
986 1 -0.00813657 -0.00736998 0.000499741 7.31859e-06 -5.65351e-06 -8.13821e-07 2.4069e-08 -2.19434e-09 7.11927e-08 -2.54318e-07 -1.00909e-07 7.07075e-07 0.0005 
1847 1 -0.00709568 -0.0077019 0.0004984 -1.55281e-05 6.62673e-06 -8.78573e-07 2.8939e-07 -9.17135e-08 1.71388e-07 -1.68328e-07 -9.66564e-08 8.46542e-07 0.0005 
1447 1 -0.00561416 -0.00711896 0.000499681 7.20151e-05 -3.61917e-05 5.17288e-06 1.77586e-07 -1.14734e-07 3.32805e-08 -8.9321e-08 -9.22018e-08 8.10557e-07 0.0005 
1848 1 -0.00461814 -0.0072416 0.000498402 -1.06534e-05 -4.68713e-05 9.95328e-06 1.03781e-08 7.93458e-08 3.22485e-08 -9.73614e-08 -4.94257e-08 8.40877e-07 0.0005 
2417 1 -0.00359474 -0.0073648 0.000499469 5.18663e-06 -6.95468e-05 4.25517e-06 5.47179e-08 1.96607e-08 2.56513e-08 -8.2785e-08 -7.71936e-08 8.1692e-07 0.0005 
1462 1 -0.00259667 -0.00730965 0.000498146 -3.23493e-05 -1.2037e-05 4.94627e-06 6.15644e-08 7.50119e-08 -1.415e-08 -5.68584e-08 -1.4034e-07 7.90066e-07 0.0005 
46 1 -0.00131962 -0.00784115 0.000499695 -5.42878e-05 -3.62537e-05 1.79374e-05 3.68604e-08 1.17887e-08 -3.40177e-08 1.91475e-08 -3.19634e-07 8.70353e-07 0.0005 
1432 1 -0.000184954 -0.00787303 0.000499025 -2.71887e-05 -1.82272e-05 2.34087e-05 1.3452e-09 2.89635e-08 -1.90181e-08 9.50499e-09 -1.96177e-07 7.48252e-07 0.0005 
2195 1 -0.0116001 -0.00660505 0.000498378 2.62013e-06 -6.15211e-06 -9.07234e-06 -1.09431e-07 -1.7134e-08 2.80537e-08 2.53466e-07 -9.54032e-08 1.4128e-06 0.0005 
1429 1 -0.0105936 -0.00682957 0.000499789 -1.87882e-05 -1.29659e-05 -3.26553e-06 4.62468e-08 -1.0322e-07 1.10358e-08 1.10894e-07 -1.1694e-07 8.58593e-07 0.0005 
551 1 -0.00959865 -0.00692998 0.000498294 -9.20734e-06 1.90957e-06 -8.81006e-06 -4.79287e-08 5.42935e-08 4.1829e-09 -6.65445e-08 -1.15907e-07 7.86385e-07 0.0005 
490 1 -0.00778577 -0.00635109 0.000498924 -1.18095e-05 -3.21898e-05 1.49474e-05 1.1067e-07 -2.93402e-07 -5.18619e-08 -2.73079e-07 -7.04265e-08 7.56404e-07 0.0005 
1485 1 -0.00646687 -0.00656459 0.000499678 1.90115e-05 -6.86605e-05 -3.74099e-06 2.25811e-07 -1.57447e-07 -3.3813e-08 -1.60247e-07 -1.09494e-07 8.17453e-07 0.0005 
74 1 -0.00405023 -0.00639621 0.000499589 -2.26888e-05 -1.42413e-05 -1.77347e-05 4.96935e-08 8.56784e-08 -1.4588e-08 6.55538e-09 -4.3752e-09 7.43128e-07 0.0005 
606 1 -0.0109825 -0.00581915 0.000500192 7.30056e-07 -1.89585e-05 -2.20813e-05 -2.01717e-07 -9.47008e-09 -3.40818e-08 2.00854e-07 -6.03334e-08 9.41763e-07 0.0005 
1293 1 -0.0100002 -0.00600392 0.000499464 -1.30747e-05 8.1364e-06 -9.34418e-07 -2.24246e-07 -1.21261e-07 -4.84433e-08 1.4535e-07 -4.6151e-08 8.147e-07 0.0005 
1263 1 -0.00884822 -0.00626904 0.000499788 -3.061e-05 -8.99037e-06 2.02984e-06 -4.8557e-08 2.9461e-08 2.13608e-08 -1.36068e-07 -1.07796e-07 7.30739e-07 0.0005 
1248 1 -0.00701834 -0.00571048 0.000499708 -5.52502e-05 5.85786e-06 7.40258e-06 -3.52704e-07 -1.56727e-07 -1.47052e-08 -2.35748e-07 -6.15685e-08 7.80494e-07 0.0005 
1101 1 -0.00560419 -0.00601241 0.000498196 -9.46994e-06 -4.40261e-05 -1.80747e-06 -6.2367e-08 1.38009e-07 -4.5862e-08 -8.99396e-08 -8.60743e-08 8.16745e-07 0.0005 
817 1 -0.00467746 -0.00561622 0.00049915 -1.86198e-05 -8.40736e-05 -2.10878e-06 1.04297e-07 4.06528e-08 1.30244e-08 -2.75172e-09 8.65301e-09 7.44282e-07 0.0005 
1969 1 -0.00335347 -0.00559094 0.000498745 -1.42282e-05 -4.14762e-06 1.8304e-05 9.53743e-08 4.84677e-08 2.71985e-08 -1.83185e-07 -6.82237e-08 7.20027e-07 0.0005 
266 1 -0.0022537 -0.00609141 0.000498184 -4.08605e-07 -8.64906e-06 1.93473e-05 1.12276e-07 9.72408e-08 1.14551e-09 -2.42793e-07 -1.75731e-07 7.08405e-07 0.0005 
1477 1 -0.000920596 -0.00626575 0.000498593 -4.97386e-05 -1.75542e-05 1.43483e-05 8.0299e-08 4.89136e-08 3.59023e-08 -1.0067e-08 -2.52491e-07 8.3589e-07 0.0005 
740 1 -8.84035e-05 -0.00558931 0.000499377 3.07292e-06 -7.03719e-05 2.57904e-05 9.02643e-08 2.11927e-08 -1.41252e-08 1.42378e-07 -1.49632e-07 6.77503e-07 0.0005 
1091 1 -0.0121733 -0.00548378 0.00049799 -6.27332e-07 -5.54364e-06 -1.3099e-06 -1.58455e-08 3.66078e-08 1.07715e-08 1.9598e-07 -5.58013e-08 1.4603e-06 0.0005 
900 1 -0.011365 -0.00489555 0.000499672 1.0702e-05 -2.05564e-05 -1.12806e-05 1.25086e-08 2.44693e-08 2.65099e-08 1.25958e-07 -6.78599e-08 7.85312e-07 0.0005 
1315 1 -0.010323 -0.00483678 0.000498116 -2.4064e-06 6.11951e-06 5.81508e-06 -4.2049e-09 4.25168e-08 -5.04332e-09 1.14105e-07 -5.12303e-08 7.95675e-07 0.0005 
53 1 -0.00867841 -0.00528355 0.000497672 -3.79731e-05 4.50584e-05 6.82417e-06 -7.99578e-08 -1.13751e-07 -6.20073e-08 -8.25976e-08 -1.35452e-07 7.58055e-07 0.0005 
93 1 -0.00732347 -0.00475832 0.000499371 -6.45063e-05 -1.34116e-05 4.87045e-06 -2.87762e-07 -4.07489e-07 -2.23682e-08 -1.21717e-07 -9.77714e-08 7.62484e-07 0.0005 
1403 1 -0.00564784 -0.00495092 0.000499753 3.62394e-05 -3.7105e-06 -2.1639e-06 2.09032e-07 6.22902e-08 4.08077e-09 -9.05865e-08 -2.55504e-08 7.67685e-07 0.0005 
2181 1 -0.00395045 -0.00479007 0.000498769 -2.66962e-05 -5.71788e-06 9.82651e-06 7.03291e-08 2.02219e-08 3.33047e-08 -1.866e-07 -3.47923e-08 7.02604e-07 0.0005 
152 1 -0.00257373 -0.00496693 0.00049983 -1.90657e-05 -7.56471e-06 9.16932e-06 5.7993e-08 2.86617e-08 -4.42416e-08 -2.30965e-07 -6.75838e-08 8.30652e-07 0.0005 
262 1 -0.000967411 -0.00511304 0.000499499 3.48596e-05 -1.23427e-05 4.0311e-05 9.14112e-08 1.48531e-07 1.09739e-08 -4.74391e-09 -7.67347e-08 8.58207e-07 0.0005 
890 1 -0.0125486 -0.00455784 0.000499273 -5.96127e-07 -7.97307e-06 1.22895e-06 -6.37514e-09 8.38906e-09 -8.02641e-09 7.9391e-08 -4.9793e-08 1.32282e-06 0.0005 
2 1 -0.0108922 -0.00401473 0.000499721 -4.49683e-06 -8.02151e-06 9.86543e-06 1.04536e-07 2.22613e-08 4.36434e-08 4.16396e-08 -8.71513e-08 7.22259e-07 0.0005 
12 1 -0.00938995 -0.00444689 0.000499504 -3.92332e-05 4.67011e-06 -1.21315e-05 -1.16448e-07 1.68208e-07 -7.19149e-08 -2.84086e-08 -9.82642e-08 7.67492e-07 0.0005 
1415 1 -0.00839755 -0.00432504 0.000498545 -6.63993e-05 3.03386e-05 1.34285e-06 1.56735e-08 7.00659e-08 -1.0171e-08 -7.99996e-08 -1.05069e-07 7.5519e-07 0.0005 
2064 1 -0.005957 -0.00400033 0.00049753 -1.79742e-05 -4.46466e-05 1.11328e-05 7.91017e-08 5.4324e-08 7.62717e-08 -7.99667e-08 1.79711e-09 7.51766e-07 0.0005 
1452 1 -0.00495737 -0.00399853 0.00049952 -1.28739e-05 -2.44649e-05 1.09126e-05 6.31372e-08 1.5788e-07 -2.57424e-08 -1.11173e-07 -8.4612e-09 7.15811e-07 0.0005 
1459 1 -0.00317017 -0.00416527 0.00049847 -1.09504e-05 5.29837e-06 3.13108e-05 8.78545e-08 1.47733e-08 -1.82836e-08 -2.28652e-07 -1.37496e-08 8.42414e-07 0.0005 
1507 1 -0.00173702 -0.00442137 0.000499798 3.80064e-05 -0.000114222 1.16649e-05 1.4728e-08 8.19169e-08 -2.20848e-09 -1.34621e-07 -1.78405e-09 8.70787e-07 0.0005 
2217 1 -0.000781744 -0.00412945 0.000498842 7.31476e-06 -6.56147e-05 2.44588e-05 3.02251e-08 8.17862e-08 8.67002e-09 5.83548e-08 8.67427e-08 8.74843e-07 0.0005 
982 1 -0.0128876 -0.00348431 0.00049863 -1.445e-05 2.83066e-05 2.76255e-06 -1.61086e-08 1.07855e-08 -4.83347e-09 4.62996e-08 -1.2246e-08 1.30586e-06 0.0005 
1544 1 -0.00998488 -0.00359479 0.000499767 -2.56043e-05 9.7301e-05 6.40582e-06 2.48163e-07 -1.11017e-07 -8.21951e-08 -2.80691e-08 -6.82508e-08 7.55508e-07 0.0005 
2007 1 -0.00898807 -0.00351858 0.000500707 9.66172e-06 7.18453e-05 -4.71207e-07 2.30021e-07 1.73147e-07 -1.03046e-07 -1.09013e-07 -5.81127e-08 7.91943e-07 0.0005 
1617 1 -0.00781804 -0.00350744 0.000498963 -2.09534e-05 -1.09807e-05 5.12617e-07 1.23897e-07 4.05095e-08 -1.35186e-08 -8.4746e-08 -5.37826e-08 7.52578e-07 0.0005 
230 1 -0.0040403 -0.00359616 0.000499123 -2.38491e-05 8.25574e-06 2.26152e-05 1.28093e-07 5.53492e-08 1.42334e-08 -1.36749e-07 8.09889e-09 7.09252e-07 0.0005 
1067 1 -0.0023872 -0.00354271 0.000498668 -2.00253e-05 -1.00386e-05 4.25619e-05 5.47583e-08 -2.29503e-08 -3.06634e-08 -2.01099e-07 4.41696e-08 7.9697e-07 0.0005 
9 1 -0.0130629 -0.00247723 0.000499786 -9.986e-05 4.77607e-05 -5.4813e-06 3.04772e-08 7.49134e-08 1.19659e-08 6.99981e-08 3.0072e-08 1.32924e-06 0.0005 
2406 1 -0.011664 -0.00306352 0.000498359 -5.00755e-05 2.66537e-05 -4.67736e-06 -1.4415e-09 9.70438e-09 -1.37399e-08 5.19952e-08 -2.69411e-08 7.65893e-07 0.0005 
178 1 -0.00953637 -0.00268242 0.000499809 -8.34092e-06 5.96042e-05 1.08018e-07 -4.63531e-08 8.89861e-08 -3.38805e-08 -7.84366e-08 -2.39463e-08 7.9123e-07 0.0005 
1238 1 -0.00853113 -0.0026296 0.000499015 -7.73649e-05 5.86528e-05 5.86085e-06 -6.95372e-08 2.74882e-07 4.41008e-09 -9.18556e-08 -2.12616e-08 7.71987e-07 0.0005 
1610 1 -0.00704458 -0.00271126 0.000499788 -5.63241e-05 -0.000131883 8.78124e-08 -4.06384e-08 -8.19892e-10 -2.92868e-09 -5.52254e-08 -6.73377e-09 7.46103e-07 0.0005 
391 1 -0.00605685 -0.00288267 0.000499435 -3.17821e-05 1.79831e-05 5.84417e-07 2.54175e-08 -5.026e-08 1.55689e-08 -4.92819e-09 -3.40004e-09 7.30204e-07 0.0005 
1178 1 -0.00506403 -0.00300363 0.000499788 1.46619e-05 1.22845e-05 1.69127e-06 -1.79534e-07 -8.56914e-08 -1.82585e-08 -1.69139e-08 7.08586e-09 7.24497e-07 0.0005 
1798 1 -0.00415508 -0.00258675 0.000499731 -2.24086e-05 -3.97101e-05 8.5071e-06 6.30002e-08 -5.20923e-08 -2.5535e-08 2.20343e-09 1.70594e-08 7.22908e-07 0.0005 
619 1 -0.00323185 -0.00300768 0.000499741 -2.56059e-05 -2.53821e-05 6.62007e-06 5.52981e-08 -1.38565e-08 -1.85106e-08 -1.59625e-07 6.2169e-08 6.97195e-07 0.0005 
38 1 -0.00236599 -0.00249196 0.000499526 -6.84239e-05 -6.63705e-05 2.5869e-05 1.67807e-08 -5.59533e-08 -6.57024e-09 -1.93064e-07 1.0756e-07 6.88776e-07 0.0005 
736 1 -0.000791892 -0.00295449 0.000499677 5.3046e-05 -0.000101561 1.04362e-05 1.34853e-08 1.03623e-07 2.56307e-08 -8.04729e-08 3.66311e-08 8.07078e-07 0.0005 
186 1 -0.0124293 -0.00170365 0.000498857 -1.85871e-05 9.06799e-07 5.54747e-06 1.50368e-09 -1.39364e-08 -1.43815e-08 1.12313e-07 6.05049e-08 8.91589e-07 0.0005 
459 1 -0.0114516 -0.00208769 0.00049982 -5.48071e-07 3.76479e-06 -6.55701e-06 -2.36816e-08 3.32104e-08 -6.28948e-12 1.11899e-07 4.60425e-08 7.88175e-07 0.0005 
866 1 -0.0104732 -0.00233303 0.000499256 -3.67736e-05 -2.12491e-05 7.73963e-07 -5.76864e-08 3.73941e-08 4.71593e-09 2.7894e-08 -9.57098e-09 7.36802e-07 0.0005 
1411 1 -0.00937948 -0.00168271 0.000499423 -0.000169 -5.17877e-05 1.85856e-06 -9.22965e-08 -1.04991e-08 -6.70654e-09 2.17695e-10 -8.62118e-09 6.80354e-07 0.0005 
1278 1 -0.00775188 -0.00200419 0.000499799 -0.000101134 9.22862e-05 2.02026e-05 3.31361e-08 1.01397e-07 -1.69359e-08 -7.29927e-08 1.42709e-08 7.45123e-07 0.0005 
62 1 -0.00596027 -0.00187143 0.000499744 -0.000100641 3.99338e-05 3.40524e-06 5.71021e-08 -1.56135e-08 -4.28874e-08 -1.28779e-08 9.62985e-09 7.29353e-07 0.0005 
1669 1 -0.00496945 -0.00200662 0.000499755 -3.79965e-05 -2.08364e-05 2.66859e-05 1.9839e-07 -8.91796e-08 5.00957e-08 -2.50177e-10 -6.5066e-09 7.01065e-07 0.0005 
695 1 -0.00125379 -0.00197902 0.000498973 -2.10567e-05 -7.81231e-05 2.5666e-05 9.46895e-08 -6.41922e-08 -1.00619e-08 -1.46696e-07 1.36342e-08 7.88539e-07 0.0005 
1530 1 -0.0132944 -0.00120353 0.000499403 -1.77634e-05 -3.48981e-06 -8.84602e-06 -4.298e-08 -4.48435e-08 -3.14442e-09 9.23231e-08 9.42987e-08 1.40311e-06 0.0005 
1654 1 -0.0107156 -0.00136349 0.000499236 -1.54106e-05 -1.27478e-05 1.47343e-05 -6.14212e-08 1.8253e-08 -3.16396e-08 1.06273e-07 8.18385e-08 8.03318e-07 0.0005 
299 1 -0.00770453 -0.000983338 0.000499791 -0.000116257 0.000111115 1.29967e-06 -8.38089e-08 5.93635e-08 4.00282e-09 -1.02578e-07 7.27046e-08 7.26347e-07 0.0005 
98 1 -0.00667956 -0.00106271 0.000498859 -6.62316e-05 1.16622e-05 1.48934e-05 9.95833e-08 -2.18983e-08 2.62757e-08 -5.80566e-08 5.5063e-08 7.26246e-07 0.0005 
1060 1 -0.00391692 -0.00157312 0.000498794 -4.96802e-05 -5.01673e-05 1.94325e-05 1.39539e-07 -3.68755e-08 7.85944e-09 -7.92869e-08 -7.12977e-08 6.3969e-07 0.0005 
781 1 -0.00217019 -0.00126474 0.000499789 -0.000157412 -8.4072e-06 1.42989e-06 -1.98223e-07 -8.00226e-08 3.71543e-09 -2.33331e-07 -8.35238e-08 6.6428e-07 0.0005 
1955 1 -0.000344143 -0.00148414 0.000499344 -1.65167e-05 -2.32264e-06 2.29687e-05 -1.32108e-08 1.61705e-08 7.9372e-09 -5.30419e-08 7.0843e-10 7.11565e-07 0.0005 
1675 1 -0.0124418 -0.000620774 0.000499226 1.48068e-07 7.31135e-06 1.74283e-06 -3.76857e-08 1.89161e-08 -3.79963e-08 1.00499e-07 1.25692e-07 8.90567e-07 0.0005 
2125 1 -0.011513 -0.000116061 0.000498432 -7.76119e-05 -6.46763e-06 3.49e-06 1.34305e-08 1.82207e-08 8.89766e-09 -4.32775e-09 1.64744e-07 8.54799e-07 0.0005 
2169 1 -0.00953483 -0.000695281 0.000499853 -3.92399e-05 -7.52927e-06 -2.53235e-05 2.64336e-09 -3.4295e-08 -2.18241e-11 1.79468e-08 1.64871e-08 6.72292e-07 0.0005 
6577 1 -0.00859238 -0.000364134 0.000498262 -6.0093e-05 2.35482e-05 1.33963e-05 6.57261e-08 -1.10323e-07 1.75651e-09 -5.77523e-08 4.77792e-08 6.97476e-07 0.0005 
6638 1 -0.00684116 -7.73133e-05 0.000498894 -7.97687e-05 1.15068e-05 -8.13072e-06 1.30651e-07 -4.017e-08 4.06274e-08 -9.70704e-08 8.4595e-08 6.83196e-07 0.0005 
1600 1 -0.00577104 -0.000646433 0.000498594 -5.31721e-05 4.90277e-05 3.71226e-05 1.35391e-07 -5.57186e-08 -1.51962e-08 -6.21352e-08 3.99814e-08 7.26615e-07 0.0005 
108 1 -0.00326273 -0.000748777 0.000498574 1.00405e-06 -3.0328e-05 3.27043e-05 1.78592e-07 2.93114e-08 -2.88358e-09 -1.79011e-07 -1.16131e-07 6.48201e-07 0.0005 
288 1 -0.00178288 -0.000342744 0.000499213 2.7284e-06 1.07125e-05 2.52315e-05 2.01227e-07 8.73413e-08 -7.75817e-08 -1.29538e-07 -7.65592e-08 6.79283e-07 0.0005 
1934 1 -0.0003888 -0.000485535 0.000499455 2.11298e-05 3.51709e-06 1.52215e-05 4.70201e-08 -5.9385e-09 -9.3291e-09 -1.86778e-08 1.61011e-08 6.95829e-07 0.0005 
1180 1 -0.00374239 -0.0128164 0.000926732 1.06765e-05 -2.95466e-06 8.29567e-06 -8.71616e-09 1.11547e-08 -2.91916e-09 -8.05014e-09 3.02786e-08 1.60557e-06 0.0005 
1047 1 -0.00271695 -0.0130739 0.000937901 -3.15273e-06 1.73676e-06 3.48548e-06 -3.61968e-09 9.60198e-09 3.72629e-09 -1.35389e-08 1.95914e-08 1.72392e-06 0.0005 
1971 1 -0.000135927 -0.0126742 0.00125183 1.62047e-05 -9.65311e-06 2.67126e-06 -6.11184e-08 3.78501e-08 7.07999e-08 -6.22612e-08 -3.71355e-08 1.63554e-06 0.0005 
2053 1 -0.0046756 -0.0125048 0.000750453 1.87169e-05 -1.04898e-06 2.89298e-06 -2.4715e-09 -1.10951e-08 -1.90238e-08 -4.53953e-08 6.44789e-08 1.50077e-06 0.0005 
848 1 -0.00142106 -0.0124645 0.00125493 -3.14937e-06 2.08455e-06 5.05086e-06 -1.58625e-08 6.84071e-08 1.50505e-08 -2.25451e-08 -5.69541e-09 2.00841e-06 0.0005 
427 1 -0.00477401 -0.0110306 0.00117787 -3.94956e-05 -4.066e-05 2.79657e-05 5.30855e-08 4.05502e-08 -1.19543e-08 -5.13184e-08 3.97244e-08 1.71725e-06 0.0005 
2081 1 -0.00166484 -0.0106898 0.000831007 -9.96776e-06 -7.62537e-06 1.42199e-05 4.62809e-08 2.83905e-08 2.08984e-08 -6.49132e-08 -2.71628e-08 1.27464e-06 0.0005 
1375 1 -0.00811309 -0.00947831 0.000933006 -1.65266e-05 7.91963e-06 -3.30752e-05 -5.43367e-08 -7.45885e-08 -2.42343e-08 -2.3359e-07 -2.14041e-07 1.4044e-06 0.0005 
1658 1 -0.00634321 -0.0100613 0.000539704 -6.09089e-05 -6.64058e-05 -1.44999e-05 -3.56685e-08 -1.1256e-07 -1.13487e-08 -1.12888e-07 -6.60167e-08 8.80609e-07 0.0005 
110 1 -0.00455644 -0.0100587 0.00109059 -5.75877e-05 -5.34502e-05 9.14892e-06 1.52158e-08 6.1116e-08 -3.73689e-08 -6.56802e-08 -4.58705e-08 1.59106e-06 0.0005 
1487 1 -0.00223789 -0.0099269 0.00124986 5.16084e-06 -2.23879e-05 1.5727e-05 -7.99068e-08 7.69502e-08 -1.99226e-08 -7.06752e-08 -9.07362e-08 1.71318e-06 0.0005 
2090 1 -0.00143967 -0.00973373 0.000649413 -2.33328e-05 -3.26611e-05 -7.00794e-05 -1.92274e-08 4.51768e-08 2.35933e-08 -4.21158e-08 -9.59336e-08 8.77677e-07 0.0005 
2461 1 -0.00958735 -0.00929306 0.00111652 -2.37772e-06 5.34763e-06 -7.64517e-06 -2.03603e-08 2.58009e-08 -2.8601e-08 -9.34493e-08 -2.08047e-07 1.75498e-06 0.0005 
1750 1 -0.00397413 -0.00925365 0.000988804 -6.97143e-05 -4.87098e-05 -7.54335e-06 5.45372e-08 7.99372e-08 5.19192e-08 -2.29389e-08 -1.62025e-07 1.52792e-06 0.0005 
243 1 -0.00695369 -0.00839073 0.00122247 -3.70794e-06 1.86591e-05 -3.22305e-05 1.26872e-07 1.28315e-07 -2.30323e-08 -1.29999e-07 -8.16137e-08 2.32872e-06 0.0005 
948 1 -0.00517831 -0.00801638 0.000790003 -4.05674e-05 -3.17292e-05 7.48473e-06 -5.83052e-11 8.21095e-08 -5.15409e-09 -9.56419e-08 -1.13668e-07 1.28058e-06 0.0005 
793 1 -0.00403389 -0.00823077 0.000735477 2.50462e-06 -6.93642e-05 1.13223e-05 5.34597e-08 4.76723e-08 -6.04723e-08 -7.99428e-08 -1.11057e-07 1.0644e-06 0.0005 
1694 1 -0.00170338 -0.00853187 0.00123033 -3.89928e-05 -4.73979e-05 1.9867e-05 2.01108e-09 1.33684e-07 -8.74228e-08 -4.18165e-08 -1.906e-07 1.72113e-06 0.0005 
842 1 -0.0100229 -0.00764351 0.00105411 -1.41001e-05 1.03298e-05 -2.31817e-06 -4.13071e-08 1.05196e-07 -8.34173e-09 -6.25014e-08 -2.07995e-07 1.59102e-06 0.0005 
239 1 -0.0090105 -0.00741902 0.00114092 -6.07584e-05 -2.98077e-06 3.15206e-06 5.57519e-08 6.64748e-08 -2.72029e-08 -2.36973e-07 -1.33481e-07 1.72639e-06 0.0005 
13 1 -0.00305167 -0.00787051 0.00118717 -5.18949e-05 -4.12839e-05 -2.59571e-05 9.1716e-08 7.42469e-08 2.99518e-08 -4.64821e-08 -1.15482e-07 1.80367e-06 0.0005 
1059 1 -0.00717376 -0.00674257 0.00118408 1.45337e-05 2.88744e-05 2.06547e-05 1.92306e-07 2.01764e-08 5.55661e-08 -2.60344e-07 -9.67289e-08 1.7621e-06 0.0005 
830 1 -0.00488238 -0.00642381 0.00105148 -2.9355e-05 -0.000108193 -2.46891e-05 6.20178e-08 2.59257e-07 8.37319e-08 -1.47095e-08 -5.39067e-08 1.53582e-06 0.0005 
515 1 -0.00310647 -0.00650816 0.000806707 -3.29761e-05 -1.659e-05 7.48851e-06 9.96425e-08 6.07021e-08 6.94277e-09 -1.91984e-07 -1.20015e-07 1.11996e-06 0.0005 
2336 1 -0.00168213 -0.00691053 0.000543687 -2.63651e-05 -4.08313e-05 4.42293e-06 9.64413e-08 2.40677e-08 1.37088e-08 -7.95654e-08 -2.28992e-07 7.66719e-07 0.0005 
2421 1 -0.000539868 -0.00706626 0.000969998 -8.75896e-05 -1.31974e-05 -2.57494e-05 -3.95465e-08 2.06127e-08 -9.03168e-08 2.19652e-08 -2.93885e-07 1.56373e-06 0.0005 
1645 1 -0.00625326 -0.00560016 0.00113378 -2.11156e-05 -4.43387e-05 1.54092e-06 -9.273e-08 9.00491e-08 -2.58412e-08 -1.14522e-07 -1.04282e-07 1.77029e-06 0.0005 
100 1 -0.00401367 -0.00569265 0.00124197 -6.36475e-05 -7.59523e-05 1.41094e-05 8.22067e-08 1.06353e-07 3.0719e-08 -1.55844e-09 -1.03716e-09 1.76197e-06 0.0005 
2208 1 -0.00152674 -0.00571392 0.00106956 -2.43051e-05 6.10633e-06 5.52883e-05 1.47084e-07 8.18227e-08 1.31451e-08 -1.20934e-07 -1.76529e-07 1.63449e-06 0.0005 
220 1 -0.00940404 -0.0055198 0.00113892 -3.22046e-05 -5.14214e-07 7.14969e-06 -1.40415e-07 -1.52792e-07 -7.41088e-08 4.56817e-08 -9.61934e-08 1.75637e-06 0.0005 
1211 1 -0.00784988 -0.00549633 0.0010123 -0.000123402 -5.56929e-05 8.86786e-05 4.25026e-08 -1.72312e-07 -8.98053e-09 -1.76078e-07 -1.00672e-07 1.4508e-06 0.0005 
565 1 -0.00328841 -0.0048175 0.00124683 -5.23101e-05 -1.91369e-05 2.91908e-05 1.1971e-07 7.34324e-08 1.40072e-08 -1.94588e-07 -5.74163e-08 1.79549e-06 0.0005 
2300 1 -0.0118221 -0.00397871 0.000867469 -5.73437e-05 3.73934e-05 -3.65813e-06 -4.31013e-08 5.85779e-08 -6.78418e-09 5.17172e-08 -4.94926e-08 1.39614e-06 0.0005 
1986 1 -0.00647234 -0.00462787 0.00107778 -5.37339e-05 -4.75527e-05 7.86782e-06 1.26643e-07 8.11613e-08 2.04911e-07 -1.1374e-07 -3.93838e-08 1.58664e-06 0.0005 
1236 1 -0.00459823 -0.00458745 0.00123078 -2.53178e-05 -2.69243e-06 4.47544e-05 6.34837e-08 2.57148e-08 1.17827e-08 -1.65538e-07 -4.69556e-08 1.71224e-06 0.0005 
483 1 -0.0025047 -0.00419723 0.00124348 -5.07194e-05 -1.2301e-05 8.85641e-05 1.34376e-07 8.04521e-09 -4.72234e-08 -2.8936e-07 -3.49436e-08 2.07514e-06 0.0005 
696 1 -0.00687452 -0.00370501 0.000761796 -4.48383e-05 -9.56981e-05 7.50586e-06 8.37685e-08 1.34307e-07 7.52258e-08 -8.42406e-08 -4.84195e-08 1.09737e-06 0.0005 
704 1 -0.00147942 -0.00354798 0.000917114 2.04705e-05 -6.25473e-05 3.78244e-05 2.86961e-08 6.82048e-08 -1.43772e-08 -8.59305e-08 3.25686e-08 1.3801e-06 0.0005 
2160 1 -7.61139e-05 -0.0035577 0.000914044 -2.82077e-05 -1.30413e-05 6.79444e-05 4.90079e-08 1.83448e-08 2.48593e-08 -2.11769e-09 -1.56975e-08 1.30241e-06 0.0005 
532 1 -0.0107957 -0.00314528 0.000983827 -7.47244e-05 -4.96882e-06 1.26886e-05 -1.10611e-09 4.50134e-08 1.70395e-08 -1.51445e-09 -8.27425e-08 1.43698e-06 0.0005 
1201 1 -0.00783251 -0.00279122 0.00119588 1.67662e-05 2.16145e-05 -4.62977e-05 1.46117e-08 1.65606e-07 -2.16081e-07 -8.67242e-08 -1.90959e-08 1.79595e-06 0.0005 
2224 1 -0.00855713 -0.00179971 0.00105592 -0.000154185 1.79619e-06 4.46035e-05 -1.00181e-07 3.85706e-08 7.58445e-09 -6.94435e-08 7.04762e-09 1.44721e-06 0.0005 
1596 1 -0.00697479 -0.00180672 0.00109601 -8.49375e-05 1.1892e-05 3.46626e-05 8.2514e-08 -2.91086e-09 3.87662e-08 -7.69497e-08 3.07418e-08 1.48545e-06 0.0005 
2261 1 -0.00298315 -0.00176439 0.000798905 -6.50282e-05 -5.23678e-05 5.8153e-05 1.23238e-07 -8.18326e-08 -2.39969e-08 -1.85254e-07 -1.72712e-08 1.06941e-06 0.0005 
78 1 -0.0116479 -0.00115228 0.000789521 -1.77873e-05 -1.43026e-05 8.75731e-06 -2.88805e-08 6.59811e-08 -7.34423e-08 1.52591e-07 1.18623e-07 1.29954e-06 0.0005 
367 1 -0.0100626 -0.00114064 0.00122278 -3.70854e-05 7.95477e-05 2.44898e-05 -8.83761e-08 -1.80563e-10 -1.71111e-08 9.08276e-08 3.92386e-08 1.75486e-06 0.0005 
5 1 -0.00506524 -0.00114473 0.00100002 -8.86099e-05 1.82653e-05 9.37789e-05 2.15964e-07 -2.95901e-08 3.18169e-08 -4.64127e-08 -5.60754e-08 1.31283e-06 0.0005 
1357 1 -0.0011702 -0.00104868 0.000853267 -4.62418e-05 -4.79056e-05 4.82394e-05 -1.57256e-07 -1.17083e-07 -5.45222e-08 -1.44524e-07 -4.57332e-08 1.18587e-06 0.0005 
967 1 -0.0133495 -0.000207559 0.000558562 -5.01009e-06 -3.59975e-06 -2.67639e-06 -1.21608e-08 -8.40791e-09 -3.73275e-09 8.92331e-08 1.76125e-07 1.45508e-06 0.0005 
2095 1 -0.0104804 -0.000402168 0.000633045 -2.94391e-05 -2.11826e-06 5.42094e-06 2.04077e-08 1.25257e-08 -1.96623e-08 2.26887e-08 1.07144e-07 9.44029e-07 0.0005 
42 1 -0.00418248 -0.000691466 0.000887145 -5.50999e-05 -3.98493e-05 5.72568e-05 2.3324e-07 2.04732e-09 5.98431e-08 -7.75368e-08 -1.55787e-07 1.08425e-06 0.0005 
548 1 -0.00252171 -0.000550246 0.0011391 -4.61177e-06 3.39654e-05 4.26405e-05 2.68068e-07 -5.68862e-08 9.63963e-10 -2.09256e-07 -1.16812e-07 1.62826e-06 0.0005 
805 1 -0.00292384 -0.0130112 0.00191153 -1.88652e-05 -6.05531e-06 8.08609e-06 4.16347e-08 2.09148e-08 3.70944e-08 -5.77249e-08 1.59848e-08 2.75171e-06 0.0005 
643 1 -0.0019909 -0.0132023 0.00161213 -1.3277e-05 6.57089e-06 1.51496e-05 1.66744e-08 1.4313e-08 7.59427e-09 -3.87401e-08 2.70606e-09 2.46425e-06 0.0005 
1951 1 -0.00090566 -0.0133194 0.00131123 -9.57553e-06 -3.09543e-06 8.5512e-06 2.54177e-08 3.04224e-08 3.06415e-08 -3.40414e-08 -2.67473e-09 2.07198e-06 0.0005 
2416 1 -0.000180677 -0.0133488 0.00199905 2.37698e-06 -2.64209e-06 -1.85999e-06 -1.56678e-08 1.28414e-08 8.33957e-08 -1.13183e-07 -8.36943e-09 2.68311e-06 0.0005 
2017 1 -0.00570946 -0.0119633 0.00127102 -1.84275e-05 -1.00545e-05 6.23851e-06 6.10843e-09 -2.89894e-08 -1.53235e-08 -1.02513e-07 1.05663e-07 2.05349e-06 0.0005 
527 1 -0.00434979 -0.0126219 0.00169618 7.4239e-06 7.68102e-08 -7.71272e-06 2.43388e-08 -1.28882e-08 1.68507e-08 -3.13524e-08 3.85259e-08 2.4503e-06 0.0005 
2327 1 -0.00336542 -0.0120798 0.00148658 1.20406e-05 -9.28734e-06 1.86313e-05 -1.28316e-08 2.33917e-08 -1.92336e-09 -3.47809e-08 2.68288e-08 2.196e-06 0.0005 
886 1 -0.00238627 -0.0122708 0.00143036 1.02638e-05 1.46529e-06 -9.39972e-06 -2.23182e-08 2.52023e-08 -2.95204e-09 -4.47055e-08 -3.70586e-10 2.10439e-06 0.0005 
125 1 -0.000677184 -0.0119478 0.00167354 1.14501e-05 -1.07252e-05 -7.57058e-06 -1.96066e-08 8.46428e-08 6.828e-08 -9.59436e-08 -1.04127e-08 2.41078e-06 0.0005 
2456 1 -0.00683181 -0.01147 0.00139888 -2.1928e-05 1.2861e-05 1.34016e-06 7.28528e-08 -4.58793e-08 -9.0565e-08 -1.30167e-07 1.0757e-07 2.16915e-06 0.0005 
461 1 -0.00542586 -0.0112576 0.00193549 -1.13471e-05 -1.33706e-05 -6.66582e-05 5.48478e-08 -1.89982e-07 6.20906e-09 -7.59747e-08 7.05039e-08 2.76996e-06 0.0005 
2263 1 -0.00451717 -0.0116731 0.00196265 2.1393e-07 2.92433e-06 -1.58905e-05 5.10452e-08 -3.44854e-08 -1.54744e-08 -3.2916e-08 4.41279e-08 2.76671e-06 0.0005 
1851 1 -0.00379712 -0.0111962 0.00131101 -1.85488e-05 -2.73488e-05 1.06812e-05 5.2398e-08 6.82584e-08 -1.0791e-09 -3.72693e-08 5.92534e-08 1.99481e-06 0.0005 
947 1 -0.00270717 -0.0113272 0.001354 1.77947e-06 1.87788e-05 1.54049e-05 -2.38338e-08 2.65422e-08 -2.4328e-08 -6.33151e-08 2.34681e-08 2.018e-06 0.0005 