ITEM: TIMESTEP
15000
ITEM: NUMBER OF ATOMS
10000
ITEM: BOX BOUNDS mm mm mm
-0.015 0.015
-0.015 0.015
-0.001 0.0554
ITEM: ATOMS id type x y z vx vy vz fx fy fz f_dragforce[1] f_dragforce[2] f_dragforce[3] radius 
1359 1 -0.00148615 -0.0132649 0.000499781 -1.04137e-05 -5.39073e-06 7.81988e-07 1.17328e-08 1.75655e-08 7.7791e-09 1.23728e-08 2.86279e-08 4.82101e-07 0.0005 
2191 1 -6.5934e-05 -0.0133432 0.00049978 0.000328242 -0.000183546 4.20005e-08 7.72614e-09 -2.54135e-09 -3.87542e-11 2.04928e-08 -6.26895e-09 3.45897e-07 0.0005 
637 1 -0.00304807 -0.0122426 0.00049753 1.62857e-06 1.22583e-06 9.25593e-07 4.32917e-09 6.6018e-09 8.68197e-09 -1.76024e-08 2.89563e-08 2.99757e-07 0.0005 
1496 1 -0.00207199 -0.0124545 0.000497378 5.52111e-07 -1.51527e-06 1.00471e-06 5.29273e-09 1.18512e-08 1.35456e-08 3.08359e-09 3.76523e-08 3.47179e-07 0.0005 
502 1 -0.000773508 -0.012521 0.000497119 -5.83684e-07 -4.32867e-06 1.77864e-06 3.13328e-09 1.56182e-08 1.77092e-08 1.80804e-08 3.20042e-08 3.17838e-07 0.0005 
1195 1 -0.00705776 -0.0110975 0.000498793 -1.33889e-06 3.47842e-06 -6.2943e-07 -9.62887e-09 5.12239e-09 -8.44925e-10 -6.1293e-08 1.2907e-08 3.68267e-07 0.0005 
1356 1 -0.00631313 -0.0117635 0.000499175 -2.30928e-06 9.14063e-07 6.90422e-07 -8.96714e-09 1.31241e-10 9.04128e-09 -5.10269e-08 3.66256e-08 4.16502e-07 0.0005 
939 1 -0.00515063 -0.0116624 0.000499399 1.9892e-06 5.07397e-06 2.97815e-06 3.47568e-09 4.57082e-09 5.5394e-09 -3.6915e-08 3.02304e-08 3.11381e-07 0.0005 
1758 1 -0.0041507 -0.0116736 0.000499777 -5.93484e-07 0.000106643 3.59867e-08 1.24103e-08 -1.40297e-09 -8.02734e-11 -2.66336e-08 2.37147e-08 2.7276e-07 0.0005 
656 1 -0.00321829 -0.0112602 0.000498057 4.00016e-06 2.55506e-06 1.2467e-06 4.16876e-09 5.16008e-09 7.81672e-09 -1.33605e-08 3.02416e-08 2.78099e-07 0.0005 
758 1 -0.00220809 -0.011465 0.000498311 5.00111e-06 -3.39436e-07 2.10379e-06 3.50488e-09 1.33222e-08 -4.53863e-11 -8.98707e-09 3.75555e-08 2.79842e-07 0.0005 
319 1 -0.00111964 -0.0115667 0.000499736 -0.00020862 0.000104341 -4.22796e-08 3.73481e-09 -7.71451e-09 2.46314e-10 -2.46595e-09 3.64466e-08 2.81409e-07 0.0005 
511 1 -1.59607e-05 -0.011119 0.000495821 5.91416e-07 7.66731e-07 8.39271e-07 2.9409e-09 1.7941e-09 1.32235e-08 5.07725e-09 -3.40009e-09 2.38459e-07 0.0005 
1144 1 -0.00800336 -0.0106568 0.000499122 -5.1887e-06 4.09436e-06 1.50434e-07 8.29118e-09 -6.99995e-10 -1.18111e-09 -8.23824e-08 -1.58327e-08 3.50278e-07 0.0005 
353 1 -0.00578782 -0.0108924 0.000499384 3.70151e-07 4.48491e-06 -6.8117e-07 1.24867e-08 8.3889e-09 -6.55437e-11 -3.96872e-08 1.07371e-08 2.85321e-07 0.0005 
1818 1 -0.00393636 -0.0105682 0.000497232 8.96206e-06 1.06806e-05 1.87937e-06 8.44264e-09 1.04822e-08 3.27063e-09 -1.52582e-08 9.165e-09 2.77071e-07 0.0005 
1873 1 -0.00258519 -0.0104895 0.000499089 1.67621e-06 2.98271e-06 -2.20173e-06 6.05046e-09 1.18589e-08 1.53099e-09 -1.00879e-08 1.12333e-08 2.75748e-07 0.0005 
2211 1 -0.000756046 -0.0104479 0.00049796 -8.56777e-07 -1.03416e-06 2.00352e-07 1.6071e-08 1.13213e-08 6.13899e-09 -1.00996e-08 9.99452e-09 2.65426e-07 0.0005 
647 1 -0.00884566 -0.0100002 0.000499015 -4.39318e-06 2.59337e-06 -4.64445e-07 5.07793e-09 -4.28917e-09 -3.94098e-10 -7.07626e-08 -4.04054e-08 3.43884e-07 0.0005 
542 1 -0.00732999 -0.00991785 0.000498423 -1.91681e-06 1.87982e-06 -4.40088e-07 3.95742e-09 6.64667e-09 8.36047e-10 -7.14547e-08 -4.9651e-08 2.67735e-07 0.0005 
1585 1 -0.00535228 -0.00995161 0.000497817 2.01743e-06 -5.01944e-06 1.44197e-06 1.12655e-08 2.36212e-08 4.17e-11 -2.10411e-08 -2.08159e-08 2.8259e-07 0.0005 
2142 1 -0.00325999 -0.00975426 0.000498482 -3.13683e-06 3.21871e-07 1.17465e-06 -2.90521e-09 2.6669e-08 5.32347e-09 -3.93303e-09 -2.51141e-08 2.65983e-07 0.0005 
2330 1 -0.00886791 -0.00899272 0.000496039 -9.01521e-07 2.52171e-06 7.00081e-07 -8.72033e-09 -8.45645e-09 -6.66104e-09 -7.09206e-08 -6.7018e-08 2.5428e-07 0.0005 
733 1 -0.00681195 -0.00906304 0.000498298 -5.98863e-06 4.7956e-06 -6.01215e-07 -1.28555e-09 1.5482e-08 2.1869e-09 -5.16078e-08 -5.58192e-08 2.85486e-07 0.0005 
1443 1 -0.00575881 -0.00889939 0.000498285 -2.40268e-06 -3.36653e-06 -1.92072e-07 6.03702e-09 4.65968e-09 1.6988e-09 -2.82677e-08 -6.02861e-08 2.75671e-07 0.0005 
1221 1 -0.00476035 -0.00887447 0.000498376 -4.07724e-07 2.08769e-06 1.2071e-06 3.62629e-09 5.52445e-09 -4.06958e-09 -1.29719e-08 -6.24949e-08 2.7655e-07 0.0005 
388 1 -0.00321935 -0.00875281 0.000499761 -4.7323e-06 3.01125e-06 -2.52603e-06 -6.53581e-09 2.34398e-08 -6.04606e-09 -2.50867e-09 -4.54472e-08 2.66153e-07 0.0005 
823 1 -0.00236696 -0.00927557 0.00049972 -5.88925e-06 4.61037e-06 2.21557e-06 -1.1088e-08 1.54065e-08 1.10853e-08 6.22387e-10 -4.05049e-08 2.60591e-07 0.0005 
714 1 -0.0010839 -0.00881329 0.00049777 -3.88603e-06 -1.41323e-06 -3.23153e-06 5.14486e-09 7.39049e-09 8.75576e-09 -4.55784e-10 -5.74655e-08 2.47336e-07 0.0005 
462 1 -8.66614e-05 -0.00886862 0.000497587 6.1272e-07 8.23134e-07 -2.74356e-06 1.75005e-09 -3.27564e-09 -7.66297e-11 -1.36239e-08 -3.35967e-08 2.29988e-07 0.0005 
529 1 -0.0102058 -0.0086074 0.000499899 -1.79837e-06 9.14388e-07 1.66904e-06 -7.85722e-10 6.58662e-09 -5.3064e-09 1.34375e-09 -8.9429e-08 3.71527e-07 0.0005 
359 1 -0.00933811 -0.00811259 0.000498026 -1.14725e-06 1.50685e-06 -9.50821e-07 6.32838e-09 -2.39507e-09 -3.86681e-09 -6.24976e-08 -5.57555e-08 2.697e-07 0.0005 
1505 1 -0.0080829 -0.00836666 0.000499641 2.15362e-05 3.99124e-06 1.35693e-06 1.51532e-08 1.2419e-08 -5.56559e-09 -7.3061e-08 -4.67018e-08 2.73316e-07 0.0005 
2252 1 -0.00613582 -0.00797391 0.000499295 -5.43788e-07 2.82858e-06 1.50976e-06 -2.87499e-09 2.52615e-09 3.85894e-09 -3.72427e-08 -3.83422e-08 2.9219e-07 0.0005 
2042 1 -0.00234047 -0.00827583 0.000499775 -2.21665e-06 1.96774e-07 1.36669e-07 -1.8615e-08 2.26414e-08 1.95154e-09 -3.30303e-10 -5.20153e-08 2.70893e-07 0.0005 
1539 1 -0.010836 -0.00780102 0.000497538 -5.7828e-07 2.45873e-06 6.10826e-07 8.84951e-09 -1.20478e-08 -2.76253e-09 3.10312e-08 -7.49215e-08 4.2871e-07 0.0005 
986 1 -0.00812468 -0.00736774 0.000499609 4.40904e-05 1.16325e-06 -1.88065e-07 3.83183e-08 -4.09394e-10 -1.06728e-08 -9.55115e-08 -2.7069e-08 2.47101e-07 0.0005 
1847 1 -0.00709745 -0.00770365 0.000497838 -1.41882e-06 2.85571e-07 1.24137e-07 -2.10084e-09 1.08848e-08 -1.10688e-09 -6.12166e-08 -2.90239e-08 2.96172e-07 0.0005 
1447 1 -0.0056146 -0.00712054 0.000499331 -7.43422e-06 5.15683e-06 1.6783e-06 -1.20592e-08 2.13468e-08 -5.05105e-10 -2.87536e-08 -1.99501e-08 2.82352e-07 0.0005 
1848 1 -0.00461857 -0.00724253 0.000497538 -3.25104e-06 1.80917e-06 2.87483e-06 -5.74603e-09 5.36324e-09 2.22492e-09 -2.8593e-08 -7.32352e-09 2.97096e-07 0.0005 
2417 1 -0.00359487 -0.00736375 0.000498722 6.16556e-07 2.09876e-06 1.56917e-06 -6.84869e-09 1.48e-08 2.8388e-09 -2.62003e-08 -2.05705e-08 2.84551e-07 0.0005 
1462 1 -0.00259784 -0.00730953 0.000497501 3.77453e-06 2.00872e-06 9.92355e-07 -1.32292e-08 1.24997e-08 -5.35054e-09 -1.72025e-08 -4.34941e-08 2.70743e-07 0.0005 
46 1 -0.00132266 -0.00784293 0.000499817 6.30207e-06 1.8051e-06 -3.26881e-07 2.82481e-11 1.38718e-08 -6.49001e-09 1.63377e-08 -1.11807e-07 2.99123e-07 0.0005 
1432 1 -0.000182449 -0.00787441 0.000498845 4.92314e-06 2.46015e-06 -1.6805e-06 -1.01714e-08 -4.77183e-09 -2.37642e-10 1.53696e-08 -6.27703e-08 2.5693e-07 0.0005 
2195 1 -0.0116014 -0.00660557 0.000497969 2.12161e-06 -1.48167e-07 -1.04494e-06 6.28323e-10 -3.16131e-09 -7.86826e-10 8.55712e-08 -2.89518e-08 4.89685e-07 0.0005 
1429 1 -0.0105969 -0.00683004 0.000499777 1.96866e-05 7.07379e-08 3.52559e-07 1.24314e-08 -1.03719e-08 -7.81849e-10 3.60411e-08 -3.58502e-08 2.97885e-07 0.0005 
551 1 -0.00960171 -0.00692828 0.000497109 1.10271e-05 -2.37311e-06 7.35448e-07 -1.4464e-08 7.78213e-09 -6.35542e-09 -2.71888e-08 -3.46326e-08 2.7186e-07 0.0005 
1263 1 -0.00880419 -0.00632502 0.000499776 -0.000163611 0.000220576 -1.15712e-06 -8.86597e-09 2.61338e-09 5.58869e-10 -5.58636e-08 -2.79067e-08 2.51653e-07 0.0005 
490 1 -0.00778762 -0.0063513 0.000498257 2.14071e-06 -2.04077e-06 3.9025e-07 -1.37208e-08 1.8118e-08 -2.6168e-09 -9.59876e-08 -1.37201e-08 2.63232e-07 0.0005 
1485 1 -0.00646869 -0.00656577 0.000499079 -1.53135e-06 8.86925e-06 9.83733e-07 -1.5169e-08 2.04154e-08 -5.67964e-09 -5.1405e-08 -1.46991e-08 2.82401e-07 0.0005 
74 1 -0.00405095 -0.0063987 0.000499494 5.97953e-06 5.461e-06 2.01401e-06 -1.46121e-08 7.85829e-09 8.00084e-09 -2.04937e-09 4.41762e-09 2.59191e-07 0.0005 
606 1 -0.0109848 -0.00581917 0.000499812 3.22158e-06 2.35247e-06 1.12553e-06 -8.3407e-10 -1.958e-09 -3.14522e-09 6.93014e-08 -1.49397e-08 3.26285e-07 0.0005 
1293 1 -0.0100026 -0.00600418 0.0004982 3.94556e-06 -2.81025e-06 2.03563e-06 1.47596e-09 2.00373e-08 -5.01923e-09 5.18004e-08 -8.26877e-09 2.83056e-07 0.0005 
1248 1 -0.00701884 -0.0057128 0.000498966 8.63729e-06 -3.17575e-06 1.62792e-06 -6.65024e-09 1.27033e-08 -6.46211e-10 -7.91232e-08 -4.42e-09 2.71189e-07 0.0005 
1101 1 -0.005605 -0.00601462 0.000497313 8.65446e-06 5.34213e-06 -1.6705e-07 -8.99902e-09 1.83296e-08 -3.7025e-09 -2.77515e-08 -5.54321e-09 2.82073e-07 0.0005 
817 1 -0.00467718 -0.00561978 0.000498464 4.35878e-06 7.41243e-06 1.90167e-06 -7.98922e-09 1.14594e-08 -7.86124e-09 -5.42978e-09 1.46727e-08 2.59505e-07 0.0005 
1969 1 -0.00335385 -0.00559121 0.000497838 4.66037e-06 2.42011e-06 1.44907e-06 -9.32129e-09 1.21651e-08 -2.66286e-09 -6.77818e-08 -1.38394e-08 2.50631e-07 0.0005 
266 1 -0.0022548 -0.0060928 0.00049715 6.73529e-06 2.84848e-06 2.74189e-06 -1.67154e-08 1.5031e-08 -2.81074e-09 -8.72969e-08 -4.98825e-08 2.46204e-07 0.0005 
1477 1 -0.000921101 -0.00626935 0.000497425 9.60371e-06 4.75254e-06 -8.15501e-07 -2.09953e-08 6.61254e-09 2.07212e-10 6.04754e-09 -7.17514e-08 2.97997e-07 0.0005 
740 1 -8.9636e-05 -0.00559081 0.0004987 1.47904e-05 8.20378e-06 -2.60934e-06 -2.65685e-08 2.59981e-09 -6.50747e-09 6.23671e-08 -3.76038e-08 2.4287e-07 0.0005 
1091 1 -0.0121736 -0.00548396 0.000497604 5.40223e-07 1.23172e-07 -2.33378e-07 1.78345e-09 6.41556e-10 -1.79645e-09 6.6827e-08 -1.41901e-08 5.06702e-07 0.0005 
900 1 -0.011366 -0.00489519 0.000499621 8.14219e-07 5.44599e-07 -6.68698e-07 8.10711e-09 -3.58173e-09 -2.33096e-10 4.42462e-08 -1.56935e-08 2.73345e-07 0.0005 
1315 1 -0.01031 -0.00484003 0.000497049 2.11802e-06 -1.55605e-06 -2.17378e-07 3.69576e-09 4.59908e-09 -2.08225e-09 3.95044e-08 -9.44982e-09 2.77265e-07 0.0005 
53 1 -0.00868172 -0.00528422 0.000496874 8.57405e-06 -2.699e-06 9.63341e-07 -1.07215e-09 1.74863e-08 1.23796e-10 -2.94913e-08 -3.76042e-08 2.58375e-07 0.0005 
1403 1 -0.00564683 -0.00494951 0.000499532 1.16596e-05 -4.22215e-06 4.81658e-06 2.26616e-08 2.04138e-08 -1.39223e-09 -3.28969e-08 1.45944e-08 2.64172e-07 0.0005 
2181 1 -0.00394867 -0.00478913 0.000498085 -8.97479e-07 -9.87608e-07 1.62345e-06 -3.53235e-09 3.96045e-09 -1.15586e-08 -6.93777e-08 -7.64823e-10 2.4913e-07 0.0005 
152 1 -0.00257445 -0.00496725 0.000499686 3.72493e-06 1.12272e-06 -1.33879e-06 -5.054e-09 5.79704e-09 7.71185e-11 -7.34563e-08 -7.75934e-09 2.84232e-07 0.0005 
262 1 -0.000969321 -0.0051153 0.000499263 4.11626e-06 6.41442e-06 2.53033e-06 2.36985e-09 -8.14704e-09 -1.02655e-08 7.59504e-09 -5.62057e-09 2.98635e-07 0.0005 
890 1 -0.0125488 -0.00455803 0.000498936 1.70596e-07 -3.57202e-07 1.0766e-06 2.05612e-09 4.93771e-09 -3.65949e-09 2.75402e-08 -1.07906e-08 4.62742e-07 0.0005 
2 1 -0.0108927 -0.0040149 0.000499632 1.60487e-06 -1.0434e-06 -4.75269e-07 1.1187e-08 2.34344e-09 -4.95655e-11 1.41427e-08 -2.10497e-08 2.54938e-07 0.0005 
12 1 -0.00939881 -0.00442983 0.000499382 2.78962e-06 -2.27512e-06 -1.40795e-06 6.95438e-09 2.70911e-09 -6.27248e-09 -1.43425e-08 -2.57136e-08 2.65087e-07 0.0005 
1415 1 -0.00839889 -0.00432677 0.000498178 7.2961e-06 -2.96657e-06 2.08069e-06 6.58025e-09 1.04793e-08 -2.06546e-09 -2.55755e-08 -3.2782e-08 2.60618e-07 0.0005 
93 1 -0.00728975 -0.00463175 0.000499142 8.32469e-06 -2.08775e-06 2.78112e-07 9.47179e-09 1.39915e-08 1.3923e-09 -3.41707e-08 -3.07373e-08 2.67426e-07 0.0005 
2064 1 -0.00595717 -0.004 0.000496594 8.91128e-06 -1.61591e-06 1.53767e-06 8.36397e-09 1.45102e-08 -1.01603e-09 -2.79401e-08 2.33974e-08 2.57724e-07 0.0005 
1452 1 -0.00495691 -0.00399855 0.000498808 -2.99835e-05 3.18346e-05 2.45753e-06 4.52504e-09 2.85285e-08 -4.66362e-09 -4.2525e-08 1.18374e-08 2.51742e-07 0.0005 
1459 1 -0.00316923 -0.00416461 0.000497524 4.92964e-07 -9.51714e-07 3.11239e-06 -8.64995e-09 4.70361e-09 -6.88733e-09 -7.34847e-08 1.00562e-08 2.88036e-07 0.0005 
1507 1 -0.00173652 -0.00442381 0.000499888 1.94696e-06 4.21289e-06 1.11801e-06 8.49409e-09 -1.85701e-08 1.84671e-09 -3.54893e-08 1.99428e-08 2.97341e-07 0.0005 
2217 1 -0.000780893 -0.00413365 0.000498099 2.78675e-06 7.80958e-06 2.11853e-06 1.24086e-09 -4.14523e-09 -4.94931e-09 3.05262e-08 5.676e-08 2.98444e-07 0.0005 
982 1 -0.0128875 -0.00348575 0.000497862 -1.50914e-06 2.11737e-06 2.02531e-07 4.37791e-09 -5.98835e-09 -7.22362e-10 1.66308e-08 3.61471e-09 4.5755e-07 0.0005 
1544 1 -0.0100071 -0.00355043 0.000499777 3.44864e-05 -6.61047e-05 1.17457e-07 -6.77716e-09 5.24616e-10 -5.63281e-10 -1.53123e-08 -1.525e-08 2.66851e-07 0.0005 
2007 1 -0.00898736 -0.00351915 0.000500209 7.62548e-06 -3.87122e-06 -1.1695e-06 1.13707e-08 1.3073e-08 5.79218e-09 -4.69216e-08 -1.60483e-08 2.80912e-07 0.0005 
1617 1 -0.00781959 -0.00351193 0.000498221 6.62398e-06 -1.01142e-06 7.11619e-07 9.52411e-09 2.42525e-08 -3.29263e-09 -1.70496e-08 -1.37054e-08 2.79665e-07 0.0005 
230 1 -0.00403876 -0.00359641 0.000498034 1.85592e-06 -4.57827e-07 4.71927e-06 4.1482e-09 2.02498e-08 -4.1786e-09 -5.2301e-08 1.59583e-08 2.49632e-07 0.0005 
1067 1 -0.00238642 -0.00354283 0.000497671 1.61502e-07 -3.26309e-06 4.37192e-06 -1.07714e-08 6.47323e-09 -4.31175e-09 -5.88932e-08 3.19209e-08 2.72177e-07 0.0005 
9 1 -0.0130612 -0.0024788 0.000499318 1.97952e-06 -3.3264e-06 -6.6645e-07 3.21165e-09 -6.43641e-09 -2.03866e-09 2.52565e-08 1.97749e-08 4.6549e-07 0.0005 
2406 1 -0.0116634 -0.00306561 0.000497566 1.97329e-06 -1.87495e-06 1.41164e-06 1.10628e-08 1.79853e-10 -7.76332e-10 1.8814e-08 8.08027e-10 2.69238e-07 0.0005 
178 1 -0.00953224 -0.00267012 0.000499778 8.65314e-06 -2.05621e-05 -2.36668e-07 -3.66959e-08 -8.29214e-10 -4.5074e-09 -3.82869e-08 -1.44059e-09 2.80872e-07 0.0005 
1238 1 -0.00852922 -0.00263141 0.000498473 6.2122e-06 -2.72526e-06 -7.83081e-07 1.6942e-08 1.55588e-08 -4.02393e-09 -2.9883e-08 9.29549e-10 2.81967e-07 0.0005 
1610 1 -0.00706458 -0.00273032 0.000499777 -6.59126e-05 3.27499e-05 2.14679e-08 1.80555e-09 3.00497e-09 -2.7898e-11 -1.74796e-09 5.20024e-09 2.73727e-07 0.0005 
391 1 -0.00605901 -0.00288397 0.000498904 2.79528e-05 3.35408e-06 1.26746e-06 -1.10921e-08 2.53292e-08 4.14344e-09 1.53188e-08 4.65185e-09 2.40562e-07 0.0005 
1178 1 -0.00506621 -0.0030036 0.000499776 5.88454e-05 5.54047e-05 4.28022e-06 1.26907e-08 7.93601e-09 3.20219e-09 -7.98415e-09 1.47126e-08 2.47222e-07 0.0005 
1798 1 -0.00415387 -0.00259084 0.000499719 -5.01732e-05 0.00022639 -1.33434e-06 -9.48975e-09 4.03785e-09 -2.95835e-09 -1.34667e-08 2.03805e-08 2.51188e-07 0.0005 
619 1 -0.00323085 -0.00300722 0.000499742 -2.79599e-06 -3.10561e-06 1.37941e-06 -9.56262e-09 -4.13039e-09 -1.87084e-09 -5.34021e-08 3.53229e-08 2.40974e-07 0.0005 
38 1 -0.00212539 -0.00250305 0.000499278 -0.00038538 -8.6467e-05 1.15928e-06 -5.51676e-09 2.29038e-08 -3.02353e-09 -5.22441e-08 4.15786e-08 2.37522e-07 0.0005 
736 1 -0.000790845 -0.00295677 0.000499713 9.77855e-07 1.6927e-06 6.25537e-07 8.51791e-09 -1.96899e-08 -6.68627e-09 -1.96649e-08 2.75373e-08 2.83808e-07 0.0005 
186 1 -0.0124292 -0.00170433 0.000498005 1.13591e-06 -1.63263e-06 3.19171e-07 1.27805e-10 2.10422e-09 5.5387e-10 4.07854e-08 3.20657e-08 3.1184e-07 0.0005 
459 1 -0.0114537 -0.0020892 0.000499173 -1.15411e-06 -1.85181e-06 1.25911e-06 -9.94984e-09 3.18988e-09 -9.68266e-11 3.96291e-08 2.86717e-08 2.76656e-07 0.0005 
866 1 -0.0104734 -0.00233178 0.000499316 5.72639e-06 -1.45923e-06 -1.14657e-06 1.38423e-08 6.43253e-09 -8.16521e-09 7.0501e-09 7.48785e-09 2.59133e-07 0.0005 
1411 1 -0.00937864 -0.00168198 0.000498662 3.99799e-06 -2.21535e-06 1.35156e-06 2.79777e-08 7.74865e-09 -1.83852e-09 -1.52888e-09 6.18828e-09 2.39935e-07 0.0005 
1278 1 -0.00775265 -0.00200303 0.000499265 1.16958e-05 -4.54792e-06 2.26055e-06 3.2249e-08 -1.47823e-08 -4.76149e-09 -1.41013e-08 1.62101e-08 2.75932e-07 0.0005 
62 1 -0.00603991 -0.0018805 0.000499777 0.000203388 7.43679e-05 1.93396e-08 5.24113e-10 2.90737e-09 -2.53793e-11 5.80031e-09 6.25867e-09 2.44977e-07 0.0005 
1669 1 -0.00496856 -0.0020081 0.000499765 1.25369e-05 5.155e-05 -2.63896e-07 1.76791e-09 1.87643e-08 -2.05732e-09 -3.15726e-09 4.93027e-09 2.42231e-07 0.0005 
695 1 -0.00125736 -0.00198026 0.00049858 1.13702e-05 6.32411e-06 2.07119e-06 8.09052e-09 7.45544e-09 -7.28282e-09 -4.04952e-08 1.96963e-08 2.76737e-07 0.0005 
1530 1 -0.013293 -0.00120283 0.000499456 -1.91066e-07 -1.67318e-06 1.01889e-06 -1.35573e-09 4.82914e-09 -1.41664e-10 3.41506e-08 4.39492e-08 4.92593e-07 0.0005 
1654 1 -0.0107159 -0.00136277 0.00049862 3.88017e-06 -1.34558e-06 1.09896e-06 2.3524e-09 2.15025e-09 -4.33272e-09 3.55521e-08 4.1733e-08 2.81826e-07 0.0005 
299 1 -0.00770679 -0.000989699 0.000499767 2.01072e-07 5.68645e-07 1.04104e-06 -7.7466e-09 1.27373e-08 1.88447e-09 -3.56384e-08 4.84003e-08 2.55e-07 0.0005 
98 1 -0.00667982 -0.00106252 0.000498101 2.01085e-06 -2.49256e-06 2.1889e-06 -4.44731e-09 -8.97999e-09 -6.02505e-09 -1.50252e-08 2.05346e-08 2.53795e-07 0.0005 
1060 1 -0.00391608 -0.00157371 0.000497801 3.1096e-06 3.29944e-06 4.91564e-06 3.98342e-08 3.24588e-08 -3.60523e-09 -2.79353e-08 -1.34961e-08 2.22558e-07 0.0005 
781 1 -0.00213797 -0.00130258 0.000499777 -0.000409046 0.000324157 -8.57476e-09 -4.49e-08 -2.98085e-08 1.08284e-11 -6.65353e-08 -1.64733e-08 2.27332e-07 0.0005 
1955 1 -0.000349262 -0.00148586 0.000499072 1.17562e-05 4.25615e-06 4.106e-06 -3.10375e-09 5.14579e-09 -3.87831e-09 -8.74804e-09 2.35034e-08 2.48335e-07 0.0005 
1675 1 -0.0124415 -0.000619897 0.000499031 2.83138e-06 -1.11484e-06 5.42847e-07 5.75164e-09 7.74461e-09 1.15389e-09 3.71413e-08 5.60087e-08 3.11902e-07 0.0005 
2125 1 -0.0115117 -0.000118885 0.000497229 -1.73207e-06 -3.08967e-06 7.13013e-07 5.92761e-10 2.10896e-09 -9.61002e-10 -1.58422e-09 7.04611e-08 3.02713e-07 0.0005 
2169 1 -0.00953576 -0.000695211 0.000499125 4.37135e-06 -4.19784e-06 3.95866e-06 4.04279e-09 -1.39182e-09 -3.97795e-09 4.47594e-09 1.50186e-08 2.36876e-07 0.0005 
6577 1 -0.00859402 -0.000363677 0.000497333 2.83228e-06 3.67982e-07 3.50096e-06 -6.18747e-12 -2.05288e-09 2.60715e-10 -2.14683e-08 3.11344e-08 2.44858e-07 0.0005 
6638 1 -0.00684248 -7.76479e-05 0.000498325 2.29684e-06 2.33596e-07 4.06716e-06 -8.05937e-09 -8.84283e-09 1.01058e-09 -3.25523e-08 3.52865e-08 2.38871e-07 0.0005 
1600 1 -0.00577225 -0.000645849 0.000497596 2.43908e-06 -1.25387e-06 1.71391e-06 -7.57489e-09 -1.01956e-09 1.43859e-10 -2.05042e-08 6.43606e-09 2.53549e-07 0.0005 
108 1 -0.00326533 -0.000749506 0.000497453 3.52239e-06 7.35578e-07 3.96279e-06 -1.5803e-08 -8.00174e-09 8.2926e-10 -5.27609e-08 -3.09184e-08 2.2237e-07 0.0005 
288 1 -0.00178554 -0.000343638 0.000498643 4.24841e-06 3.03317e-06 1.63937e-06 -1.3146e-08 -1.09192e-08 1.47919e-09 -2.5472e-08 -1.05682e-08 2.34019e-07 0.0005 
1934 1 -0.00039367 -0.00048697 0.000499252 6.41154e-06 2.40058e-06 1.51079e-06 -1.58916e-09 1.53047e-08 -5.4886e-09 6.33218e-09 3.08967e-08 2.4194e-07 0.0005 
1180 1 -0.00374213 -0.012817 0.000925933 -1.15944e-06 2.11911e-06 -1.05321e-06 3.90643e-09 3.26801e-09 9.48119e-09 -2.85559e-08 1.85614e-08 5.65809e-07 0.0005 
1047 1 -0.002717 -0.0130747 0.000936312 -5.67134e-07 1.02896e-06 6.77983e-07 5.41557e-09 1.27572e-08 1.53092e-08 -1.15278e-08 2.41679e-08 6.27541e-07 0.0005 
1971 1 -0.000135248 -0.0126758 0.0012478 -8.55455e-07 -3.00718e-06 2.7512e-06 9.33807e-09 1.77518e-08 2.59661e-08 6.41912e-09 -1.09209e-08 5.35781e-07 0.0005 
2053 1 -0.00467521 -0.0125049 0.00075029 -3.00479e-06 -1.3551e-08 -1.22095e-06 2.46947e-09 2.27931e-09 3.07116e-09 -3.6653e-08 2.59658e-08 5.25137e-07 0.0005 
848 1 -0.00142134 -0.0124666 0.00125266 -1.08165e-06 -1.65308e-07 4.32755e-06 1.049e-09 2.2022e-08 3.20227e-08 1.05324e-08 3.98276e-08 7.49629e-07 0.0005 
427 1 -0.00477492 -0.0110336 0.00117978 1.53021e-05 6.13723e-06 -2.58948e-06 1.37513e-08 2.96671e-08 3.98925e-09 -2.16488e-08 1.38447e-08 6.00848e-07 0.0005 
2081 1 -0.00166523 -0.0106909 0.000828857 -1.48061e-06 -1.71021e-06 -1.36939e-06 2.02481e-08 1.89822e-08 1.32166e-08 -1.18147e-08 2.20424e-08 4.4301e-07 0.0005 
1375 1 -0.0081133 -0.00947663 0.000930806 -3.65703e-06 -1.53011e-06 8.58247e-07 1.40634e-09 5.16697e-09 -1.73631e-09 -8.28341e-08 -7.05626e-08 4.93809e-07 0.0005 
1658 1 -0.00634339 -0.0100626 0.000540255 -9.05428e-07 4.23119e-07 1.29173e-06 8.05836e-09 5.20225e-09 9.03653e-09 -4.2293e-08 -2.44457e-08 3.06858e-07 0.0005 
110 1 -0.00455704 -0.0100621 0.00108867 4.59282e-06 7.36199e-06 4.17992e-06 1.14065e-08 2.57996e-08 -4.24152e-10 -2.30917e-08 -1.44398e-08 5.55582e-07 0.0005 
1487 1 -0.00223831 -0.00992734 0.00124695 -9.48217e-07 2.73735e-06 6.82226e-07 -8.37526e-09 1.1098e-08 2.06306e-08 -2.00235e-08 -2.54969e-08 5.97079e-07 0.0005 
2090 1 -0.00143902 -0.00973411 0.000651947 -2.6679e-06 -3.05286e-06 -3.68672e-06 1.8301e-09 1.61862e-08 1.70282e-08 -1.00976e-08 -2.37692e-08 3.06898e-07 0.0005 
2461 1 -0.00958889 -0.00929253 0.00111362 1.41553e-06 -1.1599e-06 1.81206e-06 -8.72184e-09 -1.65333e-09 -1.96155e-08 -3.48273e-08 -6.83767e-08 6.1297e-07 0.0005 
1750 1 -0.00397623 -0.00925678 0.000984803 3.40547e-06 1.05614e-05 1.44588e-06 6.23476e-09 2.53793e-08 4.34392e-09 -4.31529e-09 -5.20107e-08 5.29526e-07 0.0005 
243 1 -0.00695208 -0.00838903 0.00122291 -1.78564e-06 2.75342e-06 -4.13227e-06 -1.86522e-08 2.49258e-08 6.31277e-09 -5.09082e-08 -3.65473e-08 8.20467e-07 0.0005 
948 1 -0.00518038 -0.0080156 0.000788393 -1.83236e-06 1.5409e-06 3.33904e-06 -5.0874e-09 6.87413e-09 1.38136e-09 -2.92063e-08 -3.3493e-08 4.49593e-07 0.0005 
793 1 -0.00403686 -0.00822774 0.000735832 -2.8969e-06 4.17702e-06 -7.59853e-08 -5.44123e-09 1.27327e-08 7.69074e-10 -2.35212e-08 -3.19987e-08 3.75416e-07 0.0005 
1694 1 -0.00170503 -0.00853399 0.00122747 -3.05477e-06 -2.30827e-07 -1.45661e-06 -1.19364e-08 2.13669e-08 1.00434e-09 -9.40081e-09 -6.47486e-08 5.95858e-07 0.0005 
842 1 -0.0100231 -0.0076438 0.00105129 1.33852e-06 7.32496e-07 1.99694e-06 6.67061e-09 -5.4167e-09 -9.02099e-09 -2.60594e-08 -6.7737e-08 5.51785e-07 0.0005 
239 1 -0.00901266 -0.0074169 0.00113785 5.99293e-06 -5.01535e-06 6.9143e-07 -2.7564e-09 1.28231e-08 -1.33646e-08 -9.00908e-08 -4.11641e-08 5.97402e-07 0.0005 
13 1 -0.00305513 -0.00787124 0.00118359 7.8748e-06 1.17035e-05 1.44035e-05 -2.00786e-08 2.88424e-08 5.04667e-09 -1.35673e-08 -3.56541e-08 6.20659e-07 0.0005 
1059 1 -0.00717601 -0.00674339 0.00118192 -6.32999e-07 -1.64782e-06 1.30195e-06 -8.79155e-09 3.0785e-08 -8.53223e-09 -8.87867e-08 -1.85345e-08 6.1422e-07 0.0005 
830 1 -0.004884 -0.00642747 0.00104923 6.5633e-06 9.83802e-06 1.62261e-06 -1.72174e-08 1.61069e-08 3.01761e-09 -6.24349e-09 -8.08671e-09 5.34851e-07 0.0005 
515 1 -0.00310698 -0.006508 0.000805733 4.6657e-06 3.85655e-06 2.70199e-06 -1.23057e-08 1.55113e-08 3.78801e-09 -7.10978e-08 -3.32333e-08 3.90474e-07 0.0005 
2336 1 -0.00168342 -0.00691195 0.000542137 6.58345e-06 3.52751e-06 3.64601e-06 -1.86258e-08 1.03939e-08 -1.22574e-08 -2.23495e-08 -7.21444e-08 2.67391e-07 0.0005 
2421 1 -0.000538802 -0.00706798 0.000968225 1.72627e-05 4.59848e-06 1.27356e-05 -1.12722e-08 1.72684e-08 -1.9074e-08 2.0835e-08 -9.58362e-08 5.44434e-07 0.0005 
1645 1 -0.00625388 -0.00560234 0.00113153 1.19219e-05 3.53872e-07 2.11248e-06 2.00699e-09 2.7407e-08 -3.54013e-09 -3.52258e-08 -7.96226e-09 6.11394e-07 0.0005 
100 1 -0.00401331 -0.00569443 0.00124055 6.11974e-06 4.79042e-06 4.62807e-06 -1.22891e-08 3.30808e-08 -1.10457e-08 -5.7705e-09 6.27502e-09 6.15573e-07 0.0005 
2208 1 -0.00152702 -0.00571809 0.00106808 8.84559e-06 4.42496e-06 8.14023e-07 -1.81222e-08 2.18121e-08 -7.0221e-09 -3.5895e-08 -4.47658e-08 5.77996e-07 0.0005 
1899 1 -0.0103982 -0.00547996 0.00125571 6.23978e-06 -1.20297e-06 -6.85138e-07 6.26931e-10 2.5983e-09 -5.91576e-09 6.76105e-08 -3.8586e-09 6.92353e-07 0.0005 
220 1 -0.009408 -0.00551937 0.00113608 9.32942e-06 -4.76598e-06 3.29791e-06 -1.69347e-10 1.55761e-08 -9.42327e-09 1.68083e-08 -2.41924e-08 6.05437e-07 0.0005 
1211 1 -0.00785133 -0.00549466 0.00100724 9.78064e-06 -4.08245e-06 4.25233e-06 -1.86099e-09 1.77802e-08 -7.64418e-09 -5.9597e-08 -2.86385e-08 5.05132e-07 0.0005 
565 1 -0.00328651 -0.00481822 0.0012453 -2.61917e-06 4.55455e-07 4.96465e-06 -1.89334e-08 1.95707e-08 -1.23672e-08 -6.46199e-08 -7.73962e-09 6.23769e-07 0.0005 
2300 1 -0.0118221 -0.00398034 0.000866304 2.92315e-06 -2.39805e-06 2.72018e-06 1.24012e-08 -2.44899e-09 -4.06379e-09 1.87548e-08 -9.09972e-09 4.90022e-07 0.0005 
1986 1 -0.00647174 -0.00463021 0.00107371 1.07411e-05 -2.90574e-06 3.50798e-06 7.72109e-09 2.1724e-08 5.7205e-09 -3.97017e-08 8.24892e-09 5.45961e-07 0.0005 
1236 1 -0.00459705 -0.00458614 0.00122882 3.37588e-06 -6.15356e-06 8.267e-06 3.55588e-09 1.17483e-08 -8.60727e-09 -6.37683e-08 -4.1543e-09 6.02486e-07 0.0005 
483 1 -0.00250215 -0.00419909 0.00123968 -4.52645e-07 -1.87323e-06 8.5149e-06 -6.32682e-09 1.8967e-08 -8.86434e-09 -8.36776e-08 5.8226e-09 7.07968e-07 0.0005 
696 1 -0.00687643 -0.00371092 0.000762388 1.09468e-05 1.30224e-06 3.93168e-06 9.66467e-09 2.49411e-08 -4.84932e-09 -2.24096e-08 -6.65115e-09 3.82499e-07 0.0005 
704 1 -0.00147839 -0.00355158 0.000915309 1.5127e-06 6.27194e-06 2.58996e-06 -3.30171e-09 -6.35551e-09 -5.23293e-09 -1.79381e-08 3.10857e-08 4.78947e-07 0.0005 
2160 1 -7.60364e-05 -0.00356057 0.000911408 8.51887e-06 6.26386e-06 9.48252e-06 -1.05681e-08 4.81797e-09 -1.02135e-08 8.05883e-09 1.48547e-08 4.52322e-07 0.0005 
532 1 -0.0107952 -0.00314472 0.000981755 6.28756e-06 -1.25561e-06 1.96619e-07 1.57331e-08 1.64126e-08 -5.46011e-09 -1.31641e-09 -1.80714e-08 5.0612e-07 0.0005 
1201 1 -0.00783842 -0.00280263 0.00120072 1.10337e-05 2.03481e-07 2.40671e-06 2.42177e-08 4.06587e-08 -7.29461e-09 -8.93854e-09 2.56427e-09 6.75401e-07 0.0005 
2224 1 -0.00855756 -0.00180231 0.00105548 9.29942e-06 -2.5919e-06 -1.30635e-06 3.7754e-08 3.18188e-08 -1.41844e-08 -2.29817e-08 1.43797e-08 5.09403e-07 0.0005 
1596 1 -0.0069749 -0.00180643 0.00109399 1.15398e-05 -6.27925e-06 3.89615e-06 1.29344e-08 1.12308e-09 1.1863e-08 -2.10434e-08 1.85462e-08 5.22688e-07 0.0005 
2261 1 -0.00298276 -0.00176705 0.000797387 8.48502e-06 2.23578e-05 8.52246e-06 4.6383e-08 1.2178e-07 3.47649e-09 -5.65708e-08 4.10116e-09 3.68225e-07 0.0005 
78 1 -0.0116487 -0.00115314 0.000788368 2.53271e-06 -2.49881e-06 1.01866e-06 2.48056e-09 7.22392e-09 -2.3305e-09 5.46209e-08 5.54312e-08 4.55476e-07 0.0005 
367 1 -0.0100637 -0.00113932 0.00122245 4.07952e-06 -8.42769e-06 1.37641e-06 9.8012e-09 -2.44959e-09 -8.46534e-09 3.14561e-08 2.45217e-08 6.17361e-07 0.0005 
5 1 -0.00506792 -0.00114572 0.000997448 5.36563e-06 -1.3443e-06 4.37134e-06 -1.05861e-08 2.10231e-08 6.69565e-09 -1.52582e-08 -1.68794e-08 4.56899e-07 0.0005 
1357 1 -0.00117465 -0.00104995 0.000852755 1.31036e-05 7.77584e-06 5.22255e-06 -3.70961e-09 6.66496e-10 -6.35577e-09 -3.58461e-08 6.7653e-09 4.1183e-07 0.0005 
967 1 -0.0133497 -0.00020741 0.000558348 1.10572e-06 -6.48053e-07 1.45998e-06 1.51353e-09 4.9784e-09 -2.69181e-10 3.59342e-08 7.49575e-08 5.18411e-07 0.0005 
2095 1 -0.0104803 -0.000402027 0.000633532 3.07662e-06 -2.8358e-07 8.88128e-07 3.40191e-09 5.82994e-09 -1.9494e-09 5.69206e-09 4.99782e-08 3.31244e-07 0.0005 
42 1 -0.00418524 -0.000693071 0.000884545 3.74225e-06 5.77755e-06 1.10844e-05 -1.91872e-08 1.49842e-08 -9.92476e-10 -2.32645e-08 -4.32764e-08 3.77452e-07 0.0005 
548 1 -0.00252506 -0.000550357 0.00113724 6.183e-06 2.26247e-06 5.85993e-06 -1.3127e-08 -1.33449e-08 1.47662e-09 -5.35952e-08 -3.15846e-08 5.51268e-07 0.0005 
805 1 -0.00292442 -0.0130095 0.00190771 -6.88276e-07 6.69274e-07 3.64951e-06 1.09547e-08 2.36669e-08 2.60033e-08 -3.175e-08 9.99697e-09 9.83532e-07 0.0005 
643 1 -0.00199091 -0.013203 0.00161124 -2.34874e-06 1.29091e-06 5.60847e-06 1.31445e-09 9.37426e-09 2.5037e-08 -5.5983e-09 2.44415e-08 9.08558e-07 0.0005 
1951 1 -0.000905446 -0.01332 0.00131202 -4.3491e-07 -4.44837e-07 -2.08713e-06 -1.21279e-09 9.82804e-09 2.32778e-08 4.36222e-09 2.14987e-08 7.71509e-07 0.0005 
2416 1 -0.000178716 -0.0133488 0.00199788 2.80363e-07 2.73596e-06 -3.98618e-06 8.42949e-09 1.53521e-09 1.06817e-08 -3.3096e-08 4.34573e-09 9.4218e-07 0.0005 
2017 1 -0.00571073 -0.0119635 0.00127063 -3.54533e-06 6.22527e-06 3.69251e-06 8.91375e-09 6.74696e-09 1.09184e-08 -4.17391e-08 3.61102e-08 7.1472e-07 0.0005 
527 1 -0.00435019 -0.0126221 0.00169418 -4.90136e-06 3.31306e-06 -5.69053e-06 1.93058e-08 -2.68651e-10 2.12921e-08 -2.76464e-08 1.64482e-08 8.59404e-07 0.0005 
2327 1 -0.00336454 -0.0120806 0.00148481 1.07294e-06 3.42898e-06 1.12094e-06 -8.39045e-09 1.69813e-08 6.66672e-09 -3.1115e-08 1.34723e-08 7.73498e-07 0.0005 
886 1 -0.00238589 -0.0122718 0.00142885 -1.04513e-06 -3.65775e-07 9.79655e-07 -6.00572e-10 3.30464e-08 1.07174e-08 -1.55185e-08 1.81762e-08 7.60052e-07 0.0005 
125 1 -0.000677091 -0.0119503 0.00166912 1.27188e-06 -2.37772e-06 3.66598e-06 -2.7343e-09 2.54906e-08 3.46171e-08 -2.23927e-08 2.90411e-08 8.55247e-07 0.0005 
2456 1 -0.00682984 -0.0114712 0.00139667 -4.0059e-06 4.80141e-06 -2.79457e-07 -1.57263e-08 6.46486e-09 1.87333e-09 -4.77409e-08 3.67337e-08 7.54512e-07 0.0005 
461 1 -0.0054264 -0.0112563 0.00192755 -3.86966e-06 4.1438e-06 -1.17328e-06 2.18671e-08 2.99216e-11 -4.02008e-09 -2.8391e-08 2.36657e-08 9.64172e-07 0.0005 
2263 1 -0.00451847 -0.0116721 0.0019532 -3.42781e-06 5.38053e-06 -6.16892e-06 2.12304e-08 -6.2781e-12 8.04993e-09 -2.18178e-08 1.65053e-08 9.64796e-07 0.0005 
1851 1 -0.00379725 -0.0111978 0.00130994 8.57324e-06 7.49764e-06 5.33475e-06 1.0291e-09 2.43336e-08 -3.2245e-09 -1.82268e-08 2.41751e-08 6.98521e-07 0.0005 
947 1 -0.00270552 -0.011326 0.00135219 1.46599e-06 -1.95396e-07 2.87165e-06 2.57138e-08 1.408e-08 1.67854e-08 -1.94746e-08 2.07675e-08 7.10002e-07 0.0005 