ITEM: TIMESTEP
95000
ITEM: NUMBER OF ATOMS
10000
ITEM: BOX BOUNDS mm mm mm
-0.015 0.015
-0.015 0.015
-0.001 0.0554
ITEM: ATOMS id type x y z vx vy vz fx fy fz f_dragforce[1] f_dragforce[2] f_dragforce[3] radius 
1359 1 -0.00148764 -0.0132668 0.000499755 -7.63391e-05 -0.000193631 -1.08913e-05 -9.85757e-09 2.69426e-07 -1.72815e-08 2.85811e-07 3.26384e-07 2.25592e-06 0.0005 
637 1 -0.00304026 -0.0122385 0.000499435 6.46455e-05 2.59005e-05 5.70947e-05 1.66243e-07 -1.81613e-08 8.16048e-08 2.98648e-09 2.98091e-07 1.34388e-06 0.0005 
1496 1 -0.00206269 -0.0124487 0.000499496 8.01368e-05 -9.58397e-05 -2.78788e-05 1.9021e-07 3.08512e-07 4.41071e-08 2.66515e-07 4.46305e-07 1.59093e-06 0.0005 
502 1 -0.000773258 -0.0125413 0.000499495 8.82918e-05 -0.000174501 1.45362e-05 3.0123e-07 -1.58289e-07 1.23136e-08 3.86677e-07 4.79465e-07 1.4701e-06 0.0005 
1195 1 -0.00707801 -0.0110987 0.000499712 -0.000590201 0.000290516 -2.51228e-05 1.3888e-07 3.27018e-08 2.61604e-08 -3.85669e-07 -5.7074e-08 1.83404e-06 0.0005 
1356 1 -0.00632457 -0.011756 0.000499807 -0.000389305 0.000556804 -7.10119e-06 2.8542e-07 -3.0976e-07 -2.70142e-07 -3.87841e-07 -4.30824e-08 1.99641e-06 0.0005 
939 1 -0.00515632 -0.0116603 0.000499702 -0.00027583 -0.000258238 -9.8351e-06 3.38842e-07 1.78028e-08 -2.32596e-07 -2.96806e-07 -1.96008e-08 1.4595e-06 0.0005 
1758 1 -0.00415601 -0.0116485 0.00049972 -0.000391754 8.2025e-05 -2.59463e-05 -3.59028e-08 -4.59107e-07 -7.74851e-08 -1.37157e-07 1.08833e-07 1.24506e-06 0.0005 
656 1 -0.00321889 -0.0112549 0.000499616 -5.88499e-06 5.55913e-07 -2.52372e-05 -1.4374e-07 -1.23293e-07 1.35521e-07 2.31201e-07 3.47914e-07 1.3343e-06 0.0005 
758 1 -0.00220161 -0.0114492 0.000499642 -4.48464e-05 -2.26426e-05 -5.80785e-05 5.05286e-08 7.28353e-08 9.3344e-08 3.12665e-07 5.67688e-07 1.36877e-06 0.0005 
319 1 -0.00110223 -0.0115537 0.000499806 0.000107123 2.84114e-05 -1.89745e-05 -5.77634e-08 1.27088e-07 -1.05657e-07 3.65235e-07 6.80072e-07 1.38634e-06 0.0005 
511 1 -5.77413e-06 -0.0110971 0.00049955 0.000171808 -8.37158e-05 -5.91077e-05 5.2946e-07 -9.75533e-07 -2.06256e-07 2.14789e-07 3.26446e-07 1.38334e-06 0.0005 
1144 1 -0.00802764 -0.0106669 0.000499692 -4.16533e-05 4.36038e-05 4.46187e-05 4.0179e-07 -2.74127e-07 -1.16229e-07 -3.17515e-07 3.90355e-08 1.90805e-06 0.0005 
353 1 -0.0057846 -0.0108829 0.000499472 -0.000302073 -0.000264599 1.67128e-05 1.8235e-08 -2.2247e-07 1.10512e-07 -3.49644e-07 -1.37966e-07 1.29479e-06 0.0005 
1818 1 -0.00394332 -0.010566 0.000499652 -0.00015202 -0.00018271 1.38282e-05 -4.77846e-07 -2.57975e-07 7.56681e-08 2.01462e-07 1.64226e-07 1.33176e-06 0.0005 
1873 1 -0.00258451 -0.0104823 0.000499559 -5.12658e-05 3.00022e-05 2.30191e-05 -2.85451e-07 -1.93706e-07 -1.10392e-07 4.31197e-07 3.4005e-07 1.30247e-06 0.0005 
2211 1 -0.000751886 -0.0104299 0.000499405 -0.000115961 2.97222e-05 -5.31252e-05 5.62662e-08 3.12444e-08 -1.19097e-07 3.16584e-07 4.14615e-07 1.40502e-06 0.0005 
647 1 -0.00885953 -0.00998677 0.000499789 4.17282e-06 5.37575e-05 -2.82965e-05 -2.65831e-08 1.24943e-07 -1.03281e-07 -2.27587e-07 -5.0717e-08 1.88681e-06 0.0005 
542 1 -0.00734116 -0.00993991 0.000499402 2.53044e-05 2.30448e-05 3.38603e-06 5.5145e-08 -1.51984e-07 -1.06935e-08 -4.59464e-07 -1.5962e-07 1.33259e-06 0.0005 
1585 1 -0.00535742 -0.00993663 0.000499517 -3.82835e-05 4.99056e-05 3.07421e-05 1.32755e-07 6.12583e-07 -2.37377e-07 -2.22161e-07 -2.41134e-07 1.2191e-06 0.0005 
2142 1 -0.00324548 -0.00973231 0.000499695 0.000204736 0.000212097 0.000114542 -2.06626e-07 -2.23107e-07 -1.48198e-07 5.17081e-07 9.51303e-08 1.41487e-06 0.0005 
2090 1 -0.00147645 -0.0097409 0.000499794 -7.32582e-05 7.1369e-05 3.90167e-06 2.20319e-07 1.71086e-07 3.45394e-08 4.3415e-07 5.03591e-08 1.45125e-06 0.0005 
2330 1 -0.00886429 -0.00898498 0.000499413 2.95785e-05 2.13916e-05 -3.59485e-06 1.33382e-07 4.11531e-08 -8.66254e-08 -4.12053e-07 -3.08735e-07 1.18228e-06 0.0005 
733 1 -0.00682808 -0.00908173 0.000499766 0.000131177 -9.11242e-05 -1.29018e-05 -2.25133e-07 1.45612e-07 -8.77473e-08 -4.26528e-07 -2.5587e-07 1.28685e-06 0.0005 
1443 1 -0.0057512 -0.00890427 0.000499571 1.91264e-06 -0.000174305 3.51743e-05 -2.61917e-07 4.06897e-07 -1.2736e-07 -1.1792e-07 -1.89507e-07 1.29555e-06 0.0005 
1221 1 -0.00475205 -0.00887013 0.000499603 6.22345e-06 -2.78039e-05 4.48155e-05 -1.66344e-07 3.3031e-07 1.4577e-07 1.71748e-07 -9.63941e-08 1.29927e-06 0.0005 
388 1 -0.00320901 -0.00873322 0.000499785 0.000173158 0.000144792 -0.000108642 3.11445e-07 1.78325e-07 -9.69249e-08 5.49772e-07 -5.24007e-08 1.42251e-06 0.0005 
823 1 -0.00235823 -0.00926938 0.000499747 -4.06615e-05 8.03455e-05 -3.28144e-05 2.05652e-07 -2.13961e-07 -1.13558e-07 5.87087e-07 -5.07047e-08 1.42823e-06 0.0005 
714 1 -0.00108633 -0.00882016 0.000499469 8.15734e-05 -1.81346e-05 -3.23059e-05 3.83478e-09 -5.07237e-08 -2.16826e-07 3.77857e-07 -3.34133e-07 1.45493e-06 0.0005 
462 1 -8.79915e-05 -0.0088721 0.000499421 2.40755e-05 -0.000201929 -0.000159037 2.48878e-08 1.83811e-07 -1.05653e-07 8.85659e-08 -2.43968e-07 1.30942e-06 0.0005 
529 1 -0.0102109 -0.0086005 0.000499703 -1.30046e-06 2.40421e-05 4.25371e-06 -3.77744e-08 1.23227e-07 3.22069e-08 -2.40692e-09 -4.73892e-07 1.90605e-06 0.0005 
359 1 -0.00934175 -0.00810687 0.000499585 3.71128e-05 1.63627e-05 -1.76367e-05 1.57346e-07 -3.99419e-09 1.38204e-08 -3.58933e-07 -3.64636e-07 1.27047e-06 0.0005 
1505 1 -0.00808279 -0.00836114 0.000499771 0.000108589 -1.46342e-05 -3.04717e-05 2.92847e-08 -2.04392e-07 -1.7874e-07 -5.78667e-07 -3.62792e-07 1.09279e-06 0.0005 
2252 1 -0.00615616 -0.00798248 0.000499758 -0.000318366 -0.00014132 -5.68257e-05 2.95753e-08 3.81207e-07 1.00079e-07 -1.91926e-07 -1.74018e-07 1.22802e-06 0.0005 
2042 1 -0.00232282 -0.00827006 0.000499778 0.000161948 0.000136598 -4.74849e-05 1.35147e-07 -4.23128e-08 -1.41664e-07 4.36584e-07 -3.56428e-07 1.38406e-06 0.0005 
1539 1 -0.01084 -0.00779238 0.000499737 2.50196e-05 -5.93065e-05 3.45164e-05 2.7969e-07 -2.68872e-07 -8.29632e-08 1.27198e-07 -3.88397e-07 2.11065e-06 0.0005 
986 1 -0.00817234 -0.00736521 0.000499794 -0.00264331 -0.000287693 -2.00951e-05 5.44785e-07 -1.76921e-07 1.98937e-08 -6.30572e-07 -3.95408e-07 1.22108e-06 0.0005 
1847 1 -0.00711393 -0.00769532 0.000499493 -0.000322355 -0.000207757 -1.41371e-05 -4.55839e-08 2.45235e-07 1.05958e-07 -3.98511e-07 -2.80225e-07 1.26432e-06 0.0005 
1447 1 -0.00561493 -0.0071229 0.000499795 -0.000348808 -4.29877e-05 3.07483e-05 1.90535e-07 -5.19186e-08 -1.23111e-07 7.41453e-09 9.11881e-08 1.26576e-06 0.0005 
1848 1 -0.00461986 -0.00722266 0.000499471 -0.000413957 0.000377489 0.000108219 3.83934e-07 2.264e-07 -2.7248e-07 1.43365e-07 3.55103e-07 1.39026e-06 0.0005 
2417 1 -0.00359436 -0.00733267 0.00049964 4.79269e-05 -7.62829e-05 -2.68808e-05 -2.41297e-07 2.74345e-07 2.21176e-07 1.44927e-07 9.4947e-08 1.38652e-06 0.0005 
1462 1 -0.00259442 -0.00730749 0.000499481 -0.000114517 -2.30433e-05 -2.41611e-05 -2.99766e-07 3.56044e-07 -1.84065e-07 2.09797e-07 -3.23386e-07 1.38816e-06 0.0005 
46 1 -0.00130751 -0.00784505 0.000499774 0.000477089 8.99782e-05 -1.28991e-05 1.06608e-07 -3.68089e-07 -1.69464e-08 4.04301e-07 -8.31393e-07 1.4554e-06 0.0005 
1432 1 -0.000199839 -0.00787885 0.000499458 -0.000620188 -0.00035767 -2.13816e-06 2.09311e-07 3.55321e-07 7.55591e-08 3.21923e-07 -5.44595e-07 1.42809e-06 0.0005 
2195 1 -0.0115966 -0.00660459 0.000499644 5.21787e-05 1.98169e-05 3.79323e-05 1.14928e-08 2.22806e-07 1.19035e-07 4.06533e-07 -7.9248e-08 2.12438e-06 0.0005 
1429 1 -0.010596 -0.00682259 0.000499799 -6.5816e-05 -7.81007e-06 3.99066e-06 -1.26262e-07 5.03781e-09 -1.17256e-08 1.31354e-07 -1.94045e-07 1.24599e-06 0.0005 
551 1 -0.00960211 -0.00693237 0.000499613 -5.62602e-05 6.33725e-06 1.42105e-05 4.52188e-08 -2.46517e-08 6.61146e-08 -2.41564e-07 -2.7959e-07 1.30495e-06 0.0005 
490 1 -0.00779348 -0.00634178 0.000499636 -0.000261528 -1.96452e-05 5.49793e-06 4.3653e-07 -4.30567e-07 -2.26131e-08 -4.51356e-07 -1.37122e-07 1.24702e-06 0.0005 
1485 1 -0.00647537 -0.00657343 0.000499673 -0.000245805 0.000350789 8.24904e-05 2.23768e-07 -1.91673e-07 1.85519e-07 1.23309e-08 2.10299e-08 1.41658e-06 0.0005 
74 1 -0.00405822 -0.0063955 0.000499547 -8.87971e-05 0.000155682 -4.99192e-05 5.89141e-09 1.6231e-07 -1.07251e-08 4.59472e-08 5.91154e-07 1.45734e-06 0.0005 
606 1 -0.0109726 -0.00582324 0.000499789 9.12062e-06 1.91986e-05 -7.88775e-06 7.58658e-08 -7.41572e-08 -7.21031e-08 2.55786e-07 1.16e-08 1.45543e-06 0.0005 
1293 1 -0.00999061 -0.00601113 0.000499817 2.79362e-07 1.64309e-05 -2.23871e-06 1.09568e-07 5.81242e-09 -1.06222e-07 7.30417e-08 -1.16419e-08 1.42014e-06 0.0005 
1263 1 -0.00885622 -0.00626636 0.000499806 -7.33297e-06 -4.08221e-05 6.43599e-06 8.54627e-08 1.10352e-07 -1.25077e-07 -3.63503e-07 -2.42243e-07 1.26299e-06 0.0005 
1248 1 -0.00701516 -0.00571051 0.000499672 -9.98541e-05 -0.000146062 -1.63967e-05 2.01353e-07 2.2285e-07 2.39002e-08 -9.8826e-08 6.09261e-08 1.28131e-06 0.0005 
1101 1 -0.00561273 -0.00602021 0.000499534 6.85232e-06 -0.000105468 -2.23172e-05 2.80825e-07 -1.26942e-07 -3.48732e-08 2.24701e-07 2.58645e-07 1.42761e-06 0.0005 
817 1 -0.00468099 -0.00561222 0.000499565 2.18616e-05 0.00024779 6.64045e-05 -4.87652e-07 1.29212e-07 -1.50548e-07 1.05157e-07 6.45618e-07 1.4627e-06 0.0005 
1969 1 -0.00335426 -0.00559176 0.000499512 6.41369e-05 2.78292e-05 -5.73861e-05 -2.34056e-07 -2.11311e-07 -3.18005e-07 -3.9059e-07 2.05818e-07 1.38141e-06 0.0005 
266 1 -0.00225629 -0.00610212 0.000499561 -8.79716e-05 -0.000161106 -3.49324e-05 -2.28925e-07 -2.31629e-08 -5.74366e-07 -3.65663e-07 -3.2765e-07 1.33946e-06 0.0005 
1477 1 -0.000926384 -0.00625257 0.000499519 -3.41582e-05 -8.6716e-05 4.75676e-05 4.00705e-07 2.98988e-07 9.24664e-08 4.22929e-07 -4.44795e-07 1.50447e-06 0.0005 
740 1 -7.89003e-05 -0.005601 0.000499654 -4.12362e-05 -0.000144287 -5.54729e-05 6.79066e-07 -4.82367e-07 -2.37322e-07 6.55934e-07 -3.10054e-07 1.11939e-06 0.0005 
1091 1 -0.012172 -0.005484 0.000499597 -3.15529e-05 -7.22832e-06 1.2877e-05 -4.02191e-08 1.29409e-07 -4.81135e-10 2.98835e-07 8.90582e-08 2.15909e-06 0.0005 
900 1 -0.0113596 -0.00490127 0.00049967 -4.62172e-05 -3.55954e-05 -2.56881e-07 1.37797e-07 -8.34539e-08 3.42858e-08 1.9634e-07 1.01471e-07 1.06573e-06 0.0005 
1315 1 -0.0103099 -0.00483011 0.000499572 -3.02292e-05 0.000105025 -1.57519e-05 3.43215e-07 2.82352e-07 1.73391e-07 5.10214e-08 7.10503e-08 1.39175e-06 0.0005 
53 1 -0.00867169 -0.00528353 0.000499432 -8.31238e-06 3.69017e-05 4.626e-05 9.43603e-08 -1.26915e-07 9.29934e-09 -1.70215e-07 -7.87931e-08 1.31371e-06 0.0005 
1403 1 -0.00565728 -0.00496657 0.000499639 -0.000115633 -0.000387193 -5.02188e-05 -3.11882e-07 2.68855e-07 -2.65581e-08 3.68795e-07 3.0619e-07 1.41179e-06 0.0005 
2181 1 -0.00398525 -0.00481672 0.000499408 -0.000539125 -0.000535576 -1.02995e-06 4.80599e-07 -2.93655e-07 -5.45041e-08 -3.13992e-07 3.01194e-07 1.3331e-06 0.0005 
152 1 -0.0025711 -0.00497058 0.0004998 2.31491e-05 -1.46137e-05 -3.4598e-05 8.12239e-08 -3.82983e-07 -6.0555e-08 -5.25905e-07 8.69321e-08 1.37248e-06 0.0005 
262 1 -0.00096131 -0.00510989 0.000499623 -7.28316e-06 -0.000257622 -8.4147e-05 -3.33486e-07 2.23937e-09 -2.11583e-07 2.50805e-07 -4.43221e-08 1.43861e-06 0.0005 
890 1 -0.0125483 -0.00455764 0.000499797 -3.31638e-06 -4.95481e-05 3.31619e-05 1.18421e-07 -6.20559e-08 -7.50248e-08 1.12026e-07 2.11931e-07 1.97078e-06 0.0005 
2 1 -0.010892 -0.00401714 0.000499547 -3.81488e-05 -2.8148e-06 -1.82769e-05 2.15095e-07 5.56017e-08 2.04129e-08 -3.36612e-08 7.74364e-08 1.27208e-06 0.0005 
12 1 -0.00938186 -0.00445804 0.000499623 -1.66681e-05 2.73021e-06 2.61039e-05 3.99167e-07 -3.55674e-07 -1.6644e-07 -1.39699e-07 -2.74985e-08 1.30504e-06 0.0005 
1415 1 -0.00839063 -0.00432391 0.000499669 3.28004e-05 -2.21205e-05 -2.07398e-05 -3.85226e-07 -1.1096e-07 2.05073e-08 -5.66113e-08 9.67945e-10 1.28265e-06 0.0005 
93 1 -0.00728311 -0.00461856 0.000499745 8.25832e-05 7.42467e-05 1.94511e-05 -5.31496e-07 -2.93431e-07 1.24546e-07 1.78499e-07 1.47089e-07 1.29739e-06 0.0005 
2064 1 -0.00595614 -0.00401259 0.000499462 0.000247944 -0.000254694 -8.92804e-05 -7.1506e-08 -3.47993e-07 -9.67613e-08 5.40494e-07 1.96701e-07 1.40372e-06 0.0005 
1452 1 -0.00495866 -0.00408189 0.000499657 0.000391859 -0.000724371 4.80313e-05 9.58932e-08 -4.18362e-07 2.54873e-08 7.79858e-08 2.35666e-07 1.34964e-06 0.0005 
1459 1 -0.0032154 -0.00417307 0.000499721 -0.000434981 0.000276593 -2.34407e-05 7.51245e-08 3.27813e-07 5.9227e-08 -5.85532e-07 2.00887e-07 1.37168e-06 0.0005 
1507 1 -0.00173394 -0.00442428 0.000499689 0.000107335 -0.000207169 6.58677e-05 3.25096e-07 -7.73649e-07 1.34117e-08 -2.42224e-07 1.56516e-07 1.39095e-06 0.0005 
2217 1 -0.000779468 -0.00412667 0.00049953 0.000191056 -0.000271457 -2.06532e-05 4.13336e-07 -7.73382e-07 2.62653e-07 3.1483e-07 3.01369e-07 1.40195e-06 0.0005 
982 1 -0.0128313 -0.00344403 0.000499705 0.000265585 -3.05308e-05 2.18713e-05 -1.43308e-07 6.14827e-08 -6.17142e-08 4.11968e-08 1.67771e-07 1.8317e-06 0.0005 
1544 1 -0.00998385 -0.00359908 0.000499844 -9.19571e-06 -0.000100777 7.59607e-06 5.98257e-08 8.02632e-08 -1.38448e-07 -2.03e-07 -3.0214e-08 1.28162e-06 0.0005 
2007 1 -0.00898711 -0.00352149 0.000499744 -2.20895e-05 -7.09824e-05 1.84409e-06 2.2391e-08 2.30336e-07 -5.54559e-08 -2.50393e-07 -3.80514e-08 1.28931e-06 0.0005 
1617 1 -0.00781559 -0.00350108 0.0004995 0.000103494 -1.59469e-05 -9.16541e-06 -4.06998e-07 1.71374e-07 -1.32435e-07 3.14901e-08 6.50191e-09 1.33573e-06 0.0005 
230 1 -0.00406157 -0.00364039 0.000499727 -0.000209423 0.000355535 -1.76781e-05 -2.11339e-07 -8.54889e-08 -9.91737e-08 -2.55905e-07 1.65427e-07 1.3375e-06 0.0005 
1067 1 -0.00241408 -0.00357506 0.000499635 -2.05992e-05 -0.000368955 -7.29818e-05 2.61849e-07 1.82368e-07 -1.41902e-07 -5.33064e-07 2.37345e-07 1.29376e-06 0.0005 
9 1 -0.0130678 -0.00246959 0.00049971 -9.44512e-06 -4.2527e-05 -1.36466e-05 5.96126e-08 -6.56813e-08 2.09869e-08 9.19854e-09 -1.09167e-07 1.98114e-06 0.0005 
2406 1 -0.0116653 -0.00306133 0.000499604 -5.25135e-05 -3.89578e-05 -7.23658e-06 1.5789e-07 6.83093e-08 -3.02952e-08 -6.9583e-08 4.4028e-09 1.26478e-06 0.0005 
178 1 -0.00953374 -0.00268415 0.000499801 -4.34243e-05 -0.000117172 8.05054e-06 -2.04159e-07 -9.63517e-08 -2.33027e-08 -3.28213e-07 -1.27396e-07 1.28953e-06 0.0005 
1238 1 -0.00853455 -0.00263013 0.000499529 -3.21936e-05 -4.74762e-05 1.21298e-05 8.94725e-08 2.78538e-07 -2.21964e-07 -1.47719e-07 -7.58589e-08 1.31473e-06 0.0005 
1610 1 -0.00703806 -0.0027246 0.000499814 7.25235e-05 0.000114477 1.68804e-05 -1.36814e-07 -3.94351e-08 2.60061e-08 2.32616e-07 5.7368e-08 1.38451e-06 0.0005 
391 1 -0.00605605 -0.00291299 0.0004998 -7.57801e-05 -0.000613675 2.32114e-06 1.149e-08 -2.04223e-07 5.18092e-08 3.79619e-07 1.27553e-07 1.48139e-06 0.0005 
1178 1 -0.00507163 -0.00308833 0.00049978 -5.45095e-05 -0.000795091 2.23468e-05 2.68975e-07 -1.11072e-07 2.46191e-08 1.88291e-07 2.98836e-08 1.37789e-06 0.0005 
1798 1 -0.00417752 -0.00264084 0.000499758 -9.72389e-05 -0.00042648 -5.37154e-05 5.5067e-07 -1.05767e-07 -3.3018e-07 -6.32047e-08 -1.69425e-07 1.33955e-06 0.0005 
619 1 -0.00326025 -0.00304228 0.000499721 3.01929e-05 -0.000175827 -9.02933e-05 -1.27055e-08 -8.49702e-07 4.22186e-08 -4.2508e-07 1.98377e-07 1.16707e-06 0.0005 
38 1 -0.00237533 -0.00257595 0.000499633 1.4412e-05 -0.000282182 5.66662e-05 2.56056e-07 -3.39057e-07 3.68025e-07 -4.96534e-07 3.42421e-07 1.107e-06 0.0005 
736 1 -0.00080188 -0.00292822 0.000499675 -0.000315368 0.000601662 -0.000162967 -4.83469e-07 -3.97854e-07 -1.20712e-07 -6.98913e-08 8.39806e-08 1.20855e-06 0.0005 
186 1 -0.0124324 -0.00169755 0.000499496 2.09629e-05 -6.30667e-05 -1.46662e-05 1.51279e-07 1.1098e-08 7.74678e-08 -2.84975e-08 -3.1529e-07 1.32703e-06 0.0005 
459 1 -0.0114396 -0.0020874 0.000499702 2.94661e-05 -5.01445e-05 1.36931e-05 1.79477e-07 1.09117e-07 6.13825e-08 -1.78006e-07 -2.66326e-07 1.294e-06 0.0005 
866 1 -0.0104709 -0.00233531 0.000499782 -1.61487e-05 -5.04671e-05 -3.96393e-05 -1.36969e-07 -4.02156e-08 -2.85273e-08 -2.56983e-07 -2.08507e-07 1.18504e-06 0.0005 
1411 1 -0.00937998 -0.00168461 0.000499576 9.93183e-05 8.13512e-05 3.15909e-05 -1.03767e-07 -2.43358e-07 2.76148e-08 -2.35381e-07 -2.38595e-07 1.19352e-06 0.0005 
1278 1 -0.00774465 -0.00201709 0.000499639 1.46401e-06 3.63947e-05 -7.24242e-05 3.39419e-08 2.90978e-07 -1.96509e-07 9.63658e-08 -5.78998e-09 1.3338e-06 0.0005 
62 1 -0.00597723 -0.00189387 0.000499778 -0.000242938 -0.000286505 9.2855e-05 6.5696e-07 -6.08272e-07 -3.17834e-07 3.60532e-07 8.82688e-08 1.49127e-06 0.0005 
1669 1 -0.00499071 -0.00205895 0.000499811 -0.000295346 -0.00100548 5.24963e-05 -9.4253e-07 1.05737e-06 1.28961e-08 1.78536e-07 -9.14238e-08 1.3249e-06 0.0005 
695 1 -0.0013827 -0.00199002 0.000499801 -0.00507602 0.000161436 -4.13202e-08 -3.00595e-08 4.5343e-08 -4.23526e-11 -2.6108e-07 6.26133e-08 1.18542e-06 0.0005 
1530 1 -0.0132965 -0.00119426 0.000499818 1.9713e-05 -4.94727e-05 3.45721e-06 -1.57655e-08 -5.5664e-08 -1.5149e-08 1.88099e-08 -3.25029e-07 2.13196e-06 0.0005 
1654 1 -0.0107073 -0.00136371 0.000499512 2.09407e-05 -7.80919e-05 -4.70589e-05 1.85597e-07 -1.97695e-08 2.90359e-08 -2.44909e-07 -3.87451e-07 1.2944e-06 0.0005 
299 1 -0.00768397 -0.000998958 0.000499757 -5.32828e-05 -0.000301005 2.77333e-05 -4.82951e-07 -6.37315e-07 -4.47053e-08 3.23206e-07 1.19712e-07 1.29791e-06 0.0005 
98 1 -0.0066863 -0.0010642 0.000499517 5.75223e-06 3.68997e-06 3.19662e-05 2.63817e-07 -4.02518e-07 -1.72951e-07 4.03185e-07 2.15721e-07 1.46416e-06 0.0005 
1060 1 -0.00394247 -0.00156255 0.000499482 -0.00035117 0.000353934 4.4552e-05 -8.39863e-07 4.63931e-07 -9.24428e-08 -1.3924e-07 -2.20032e-07 1.29494e-06 0.0005 
781 1 -0.00224001 -0.00126302 0.000499756 -0.00110981 -0.000236293 -9.83277e-05 -8.82282e-07 -8.29841e-08 3.24733e-07 -4.72308e-07 -6.18644e-08 1.38552e-06 0.0005 
1955 1 -0.000329666 -0.00147465 0.000499494 -3.95049e-05 0.000101515 -7.25642e-05 5.73142e-07 -2.76081e-07 -2.65965e-07 2.01133e-08 4.64705e-08 1.22939e-06 0.0005 
967 1 -0.0133488 -0.000187872 0.000499769 3.53418e-05 2.2068e-05 1.67314e-05 -2.39464e-08 -1.80276e-07 3.56169e-09 4.85335e-08 -3.43697e-07 2.30443e-06 0.0005 
1675 1 -0.0124497 -0.000625134 0.000499715 3.8581e-05 -4.17606e-05 6.62645e-06 -6.63519e-08 1.51034e-08 3.68482e-08 3.45878e-09 -3.86148e-07 1.32711e-06 0.0005 
2125 1 -0.0114762 -7.28571e-05 0.000499542 0.000323887 9.82899e-05 1.41126e-05 1.07764e-07 7.25532e-07 3.48959e-07 3.57772e-08 -2.53929e-07 1.29486e-06 0.0005 
2169 1 -0.00952176 -0.000694804 0.000499753 -4.81022e-05 8.89856e-05 -3.22183e-05 1.96576e-07 -1.27705e-07 -1.28443e-07 -1.51e-07 -2.7258e-07 1.18174e-06 0.0005 
6577 1 -0.00857197 -0.000382158 0.000499432 6.77297e-05 -0.00020503 6.10521e-05 4.43656e-07 -3.0755e-07 6.53854e-08 2.28261e-07 3.61396e-08 1.22023e-06 0.0005 
6638 1 -0.00682682 -7.45864e-05 0.000499605 8.94848e-05 8.72482e-05 -3.8427e-06 -3.23711e-07 -7.37407e-07 2.11241e-07 3.96007e-07 3.2237e-07 1.04898e-06 0.0005 
1600 1 -0.00577485 -0.000653646 0.000499558 -2.43011e-05 -6.60359e-05 -9.00947e-05 -1.86563e-07 -1.64607e-07 1.51209e-07 3.70305e-07 2.06273e-07 1.50804e-06 0.0005 
5393 1 -0.00496612 -6.4254e-05 0.000499627 -2.10855e-05 0.000212658 0.000100308 -6.02876e-08 1.94396e-07 1.54724e-07 -9.77406e-08 -5.0902e-08 1.10735e-06 0.0005 
108 1 -0.00331018 -0.000769054 0.000499545 -0.000751088 0.00029334 2.78082e-05 3.05041e-07 -7.21674e-10 -4.45807e-07 -3.51442e-07 -2.09712e-07 1.35842e-06 0.0005 
288 1 -0.00181962 -0.000338444 0.000499581 -0.000128223 0.000126327 3.21319e-06 4.15104e-07 -5.42799e-07 -3.76442e-08 -2.19199e-07 -9.48471e-08 1.31774e-06 0.0005 
1934 1 -0.000393411 -0.000475954 0.000499741 0.000444113 0.000693698 4.85963e-05 2.00841e-07 -7.33375e-07 2.57755e-07 1.28689e-07 9.80259e-08 1.28285e-06 0.0005 
1180 1 -0.00374294 -0.0128149 0.000915504 6.62341e-06 -8.98586e-07 8.50408e-05 7.80276e-08 -7.85517e-08 -1.4086e-08 -2.17032e-07 1.20205e-07 2.52413e-06 0.0005 
1047 1 -0.00270848 -0.0130727 0.000938648 4.25452e-05 1.79802e-07 4.24779e-05 1.92736e-07 6.28957e-08 6.30451e-08 5.4022e-08 2.17829e-07 2.72844e-06 0.0005 
1971 1 -0.000119616 -0.0126783 0.00124318 0.000106987 -0.000213242 -2.96115e-05 3.35932e-07 -5.17964e-07 3.59161e-08 3.06525e-07 1.76015e-07 2.90238e-06 0.0005 
2017 1 -0.00571107 -0.0120663 0.00122584 7.38789e-05 -0.009061 -0.00460541 2.95474e-07 -6.04294e-07 -6.37163e-07 -3.8027e-07 -1.55067e-08 3.08135e-06 0.0005 
2053 1 -0.00467558 -0.0125047 0.0007335 5.64912e-05 -3.41631e-05 -7.43628e-05 3.93675e-07 2.43535e-08 -3.27736e-07 -3.02412e-07 8.14535e-08 2.31268e-06 0.0005 
427 1 -0.00477186 -0.0110018 0.00114632 -7.16204e-05 -5.15284e-05 -0.000448905 -3.59335e-07 3.20018e-07 -2.47124e-07 -1.57596e-07 -2.858e-09 2.42484e-06 0.0005 
2081 1 -0.00166187 -0.0106759 0.000831862 -8.92128e-05 -4.31618e-05 -2.8207e-05 -2.72351e-07 3.84742e-07 -7.37327e-08 4.79069e-07 6.06851e-07 2.09989e-06 0.0005 
1375 1 -0.00811492 -0.00948173 0.000935702 9.67235e-05 9.23198e-05 -3.60976e-05 -2.16741e-08 -1.82507e-08 -4.22405e-08 -4.3454e-07 -1.46484e-07 2.56082e-06 0.0005 
1658 1 -0.00634915 -0.0100584 0.000529074 1.72892e-06 -5.86315e-05 1.39029e-05 1.83832e-07 8.13039e-08 3.49648e-08 -4.12566e-07 -2.56464e-07 1.30087e-06 0.0005 
110 1 -0.00455124 -0.0100286 0.00108319 -0.000101079 -6.94215e-05 -9.20998e-06 -3.81817e-07 2.9465e-07 -7.19254e-08 1.24356e-07 -2.66922e-08 2.30591e-06 0.0005 
1487 1 -0.00222029 -0.00992283 0.00124381 0.000356796 0.00013365 -0.00015711 -5.75635e-08 -4.32163e-07 2.1345e-08 6.0028e-07 2.26509e-07 2.75075e-06 0.0005 
2461 1 -0.00958281 -0.00929557 0.00112063 1.72242e-05 -8.98244e-06 -1.61098e-05 7.38454e-08 7.29029e-08 2.27436e-08 -1.18507e-07 -2.96912e-07 3.1595e-06 0.0005 
106 1 -0.00621953 -0.00936034 0.00125592 0.000109525 -7.64746e-05 0.000169253 -1.40649e-07 4.82409e-08 -1.38915e-07 -3.51283e-07 -3.13664e-07 2.51604e-06 0.0005 
1750 1 -0.00395778 -0.00922946 0.000988905 -2.45043e-05 5.70897e-05 0.000203936 -9.98741e-08 -3.7469e-07 6.88913e-08 4.74837e-07 -3.23631e-08 2.7208e-06 0.0005 
243 1 -0.00696776 -0.00838767 0.00120585 0.000116553 -0.00012714 -4.55748e-06 -1.45335e-08 -9.34314e-08 -9.99778e-08 -5.27628e-07 -3.26847e-07 2.94298e-06 0.0005 
948 1 -0.00518844 -0.00800605 0.000749902 -0.000289381 3.23123e-05 -0.000437916 4.89709e-07 5.95133e-07 -7.97842e-08 6.82494e-08 1.11666e-07 1.98045e-06 0.0005 
793 1 -0.00403341 -0.00820661 0.00070607 0.000146911 -0.000100581 2.1408e-05 2.52383e-07 -1.60392e-07 3.22941e-07 3.67889e-07 1.22703e-07 1.57088e-06 0.0005 
1694 1 -0.00169572 -0.00852648 0.00123521 0.000175116 0.000239299 -7.31685e-05 -9.65292e-07 -3.72135e-07 -4.18873e-07 5.16007e-07 -4.70717e-07 2.68276e-06 0.0005 
842 1 -0.0100264 -0.00764262 0.00106107 9.75116e-05 1.0943e-05 -7.9586e-06 1.68397e-07 -2.588e-07 -6.01564e-08 -1.54393e-07 -4.38261e-07 2.55596e-06 0.0005 
239 1 -0.00901012 -0.00741757 0.00114284 -0.000120749 2.51446e-05 0.000148222 6.61022e-08 -1.4745e-07 3.01559e-07 -5.48917e-07 -4.3798e-07 2.8168e-06 0.0005 
13 1 -0.00305702 -0.00786709 0.00118662 -0.000151483 -1.25847e-05 5.19914e-05 6.44836e-08 1.27415e-07 3.56472e-07 3.5791e-07 -2.56133e-07 3.02394e-06 0.0005 
1059 1 -0.00718408 -0.00674039 0.00118485 -0.000228116 -0.000122736 -2.45732e-05 1.01348e-07 -3.31988e-08 -4.21733e-08 -2.97782e-07 -4.36051e-08 2.70459e-06 0.0005 
830 1 -0.00488722 -0.00642188 0.00105777 0.000139601 0.000467479 0.000306283 1.18744e-07 -2.02508e-07 -3.37766e-07 1.43025e-07 5.8275e-07 2.67184e-06 0.0005 
515 1 -0.00311465 -0.00651164 0.000807984 -0.000159931 -6.54181e-07 -0.000107175 5.39431e-08 9.76692e-08 -1.95118e-07 -2.47071e-07 -2.60632e-08 1.95818e-06 0.0005 
2336 1 -0.00167485 -0.00691531 0.000514961 -8.22509e-05 -0.000109021 -1.73899e-06 4.31827e-07 -1.24688e-07 -8.2356e-08 1.54197e-07 -5.85153e-07 1.08914e-06 0.0005 
2421 1 -0.000548954 -0.00705962 0.000952905 -0.000363297 -0.000319941 -9.83364e-05 2.50485e-07 2.42388e-07 -3.71174e-08 4.54203e-07 -7.72521e-07 2.54992e-06 0.0005 
220 1 -0.00939517 -0.00553062 0.00114341 -8.59629e-05 -1.6129e-05 7.16477e-05 1.18093e-07 -5.11828e-07 -2.05694e-07 -4.80645e-08 -3.25663e-08 2.9563e-06 0.0005 
1645 1 -0.00625834 -0.00561412 0.00114575 -0.0001357 -0.000335703 -1.30724e-05 2.17912e-07 -2.06289e-07 3.1022e-07 3.34359e-07 1.81056e-07 2.9934e-06 0.0005 
100 1 -0.00401655 -0.00567216 0.00124389 9.09293e-05 0.000954652 6.23083e-05 -2.33632e-07 -3.24343e-07 -2.88559e-07 -1.24751e-07 6.19822e-07 3.12315e-06 0.0005 
2208 1 -0.00153747 -0.00569923 0.00106535 -0.000243295 3.88945e-05 -0.000202311 -4.03458e-07 6.52061e-09 -5.32465e-07 -1.86496e-08 -2.83338e-07 2.74161e-06 0.0005 
1899 1 -0.0103878 -0.00548317 0.00125227 -3.17776e-05 2.12917e-05 -0.000202927 -2.35274e-08 2.3082e-07 -1.78205e-07 1.97616e-07 9.6652e-08 3.24746e-06 0.0005 
1211 1 -0.00784112 -0.00548731 0.00101672 -5.3145e-05 1.26469e-05 4.35071e-06 7.42881e-08 -2.96971e-08 -2.9708e-08 -1.88069e-07 1.64764e-09 2.22596e-06 0.0005 
565 1 -0.00332251 -0.00485917 0.0012467 0.000498537 -0.00146389 -0.000993509 1.08482e-06 -5.91102e-07 -6.29739e-07 -5.42712e-07 1.87779e-07 2.71034e-06 0.0005 
2300 1 -0.0118212 -0.00397802 0.000866461 -4.64773e-05 -1.74922e-05 5.03481e-05 3.47987e-08 1.00333e-07 8.19436e-09 4.35611e-08 2.23903e-07 2.16482e-06 0.0005 
1986 1 -0.00647143 -0.00463932 0.00108337 0.00019794 -0.000263161 -0.000205902 -2.64716e-08 -2.94805e-07 -1.61842e-07 4.89811e-07 2.19951e-07 2.69973e-06 0.0005 
1236 1 -0.00464465 -0.00468313 0.00123828 -0.000917184 -0.00131562 -0.00029681 -2.57327e-08 1.2947e-08 -7.38324e-07 -8.55654e-08 3.62121e-07 2.89518e-06 0.0005 
696 1 -0.00687339 -0.00371116 0.00075903 0.000107982 -0.000306684 -0.000415986 -4.08812e-07 -2.46945e-07 -6.99657e-07 3.69707e-07 1.54582e-07 1.72618e-06 0.0005 
704 1 -0.00149406 -0.00353538 0.00088901 -6.80739e-05 0.000272674 -0.000827116 3.03665e-08 -8.72211e-07 8.35042e-07 -1.91356e-07 2.05458e-07 1.90773e-06 0.0005 
2160 1 -7.70279e-05 -0.00354992 0.000915638 -0.000299692 0.000100333 7.24606e-05 3.30312e-07 -3.69539e-07 -1.72929e-07 2.79014e-07 -2.13717e-08 1.76125e-06 0.0005 
532 1 -0.0107949 -0.00314811 0.000983762 3.38383e-05 -7.27372e-06 -8.52355e-05 1.50946e-07 6.49448e-08 4.05784e-08 -1.73982e-07 -1.37959e-08 2.51515e-06 0.0005 
1201 1 -0.00783086 -0.00278131 0.00119324 -1.79794e-05 -5.63754e-06 4.01344e-06 4.04277e-07 8.0903e-07 -7.0223e-07 -3.60416e-08 -7.5752e-08 3.14184e-06 0.0005 
2224 1 -0.00855078 -0.00179384 0.00104701 0.00017908 -2.25073e-06 -9.46561e-05 -3.11038e-08 -2.08679e-07 -1.35326e-07 1.9625e-08 -1.03135e-07 2.07114e-06 0.0005 
1596 1 -0.00696392 -0.00181976 0.00109196 8.62995e-05 -0.000175608 -0.000149909 5.93638e-08 -2.45906e-07 -1.04336e-07 3.80331e-07 8.58408e-08 2.18515e-06 0.0005 
2261 1 -0.00301527 -0.00184677 0.000741307 -0.000808906 -0.00080543 8.13014e-05 -1.21245e-07 2.76931e-08 -9.70687e-07 -4.4616e-07 5.22089e-08 1.70113e-06 0.0005 
48 1 -0.00057842 -0.00210688 0.00123273 -0.000684313 0.000174784 -0.000351703 1.04529e-06 -5.08945e-07 -2.80322e-07 -5.74728e-08 6.43931e-08 2.71877e-06 0.0005 
78 1 -0.0116438 -0.00114853 0.000775871 4.39132e-05 -6.48352e-05 1.21304e-05 9.85061e-08 4.70173e-07 -4.39308e-08 -1.70362e-07 -4.34691e-07 2.01945e-06 0.0005 
367 1 -0.0100395 -0.00116255 0.00121591 5.44959e-05 -0.000111281 -4.71089e-05 3.7616e-07 -1.24022e-07 -2.42498e-08 -2.93897e-07 -4.12532e-07 2.88432e-06 0.0005 
5 1 -0.00509428 -0.00119465 0.000992374 -0.000200197 -0.000495656 -0.000461484 -2.07146e-07 -1.20419e-07 -4.62207e-08 1.94594e-07 -1.15332e-07 2.48967e-06 0.0005 
1357 1 -0.00117949 -0.00104403 0.000802439 -3.23511e-05 0.000109528 -0.00026385 2.25722e-07 -1.09687e-06 -4.19888e-07 -1.8303e-07 -3.81726e-08 2.06711e-06 0.0005 
2095 1 -0.0104693 -0.000400646 0.000623306 -4.67538e-05 -0.000109134 -0.000110647 2.28814e-07 1.3041e-07 -2.62197e-07 -9.94777e-08 -3.12333e-07 1.43314e-06 0.0005 
42 1 -0.00424857 -0.000679932 0.000855414 -0.00080935 0.000510149 -0.000400573 -6.18954e-07 3.88242e-07 3.37088e-08 -7.01165e-08 -3.80322e-07 2.20076e-06 0.0005 
548 1 -0.00256581 -0.000562386 0.00113431 -0.000303611 -4.14633e-05 -7.39616e-05 -1.0933e-06 2.633e-07 1.08524e-07 -4.44831e-07 -1.57623e-07 3.12131e-06 0.0005 
805 1 -0.00295324 -0.0130194 0.00190634 -0.000392531 0.000186085 1.46615e-05 -5.30762e-08 1.17911e-07 -1.08009e-07 3.36405e-08 1.09953e-07 3.90074e-06 0.0005 
643 1 -0.00198812 -0.0132015 0.00161965 5.75355e-05 -6.005e-05 -9.07543e-05 -1.44546e-08 8.70369e-08 1.05312e-07 2.64255e-07 2.59064e-07 3.7733e-06 0.0005 
1951 1 -0.000896123 -0.0133192 0.00130412 0.000137157 0.000232635 -0.00020559 -2.19293e-07 1.43446e-07 3.34135e-07 3.58833e-07 2.41471e-07 3.43045e-06 0.0005 
2416 1 -0.0001734 -0.0133488 0.00199446 -6.98917e-05 3.50805e-06 -9.69377e-05 8.06647e-08 -2.70354e-07 -8.96739e-08 2.67246e-07 1.18854e-07 4.04091e-06 0.0005 
527 1 -0.00435994 -0.0126181 0.00167718 -6.15039e-05 -8.54497e-05 -2.28828e-05 5.92158e-08 -2.06959e-07 4.73863e-07 -2.62075e-07 1.27602e-07 3.45053e-06 0.0005 
2327 1 -0.00336126 -0.0120655 0.00145599 0.000180124 -2.65701e-05 5.14888e-05 3.49824e-07 -3.27826e-07 -1.11626e-07 -2.09435e-08 2.7403e-07 3.23195e-06 0.0005 
886 1 -0.00238127 -0.0122625 0.00142857 0.000318094 -3.28293e-05 1.81681e-05 8.32169e-07 1.00102e-06 1.68147e-07 2.38947e-07 4.52776e-07 3.15722e-06 0.0005 
848 1 -0.00141577 -0.0124646 0.0012614 4.94752e-05 -6.2724e-05 6.53168e-06 3.81059e-07 2.84576e-08 4.1785e-08 4.10225e-07 5.77573e-07 3.40816e-06 0.0005 
125 1 -0.000657918 -0.0119381 0.00164544 0.000263864 -8.88292e-05 -0.00024205 4.69646e-07 -2.73743e-07 -2.13748e-07 3.39601e-07 6.45516e-07 3.69668e-06 0.0005 
2456 1 -0.00685699 -0.0114547 0.00140745 -0.000115417 7.94376e-05 -0.000254131 8.69926e-08 -1.66731e-07 -9.16614e-08 -3.9775e-07 1.23846e-08 3.32457e-06 0.0005 
461 1 -0.0054053 -0.0112696 0.00189161 -4.29707e-05 -0.000142078 -0.000280164 -1.78298e-07 -1.50454e-07 2.80026e-07 -2.99898e-07 -3.06264e-08 3.85963e-06 0.0005 
2263 1 -0.00447912 -0.0116458 0.00187715 -0.000134243 -0.000171021 -0.000237993 -2.99157e-07 -1.98106e-07 9.26695e-08 -2.12655e-07 8.02763e-08 3.70647e-06 0.0005 