ITEM: TIMESTEP
80000
ITEM: NUMBER OF ATOMS
10000
ITEM: BOX BOUNDS mm mm mm
-0.015 0.015
-0.015 0.015
-0.001 0.0554
ITEM: ATOMS id type x y z vx vy vz fx fy fz f_dragforce[1] f_dragforce[2] f_dragforce[3] radius 
1359 1 -0.00149289 -0.0132655 0.000499666 -7.28362e-06 -3.16829e-06 -7.17549e-06 -1.1059e-07 8.8078e-08 3.58788e-08 3.24003e-07 2.93623e-07 1.60181e-06 0.0005 
637 1 -0.00304564 -0.012239 0.000499291 -5.83446e-06 -1.37777e-05 2.09041e-06 3.22986e-08 6.65887e-09 3.35473e-08 1.46238e-07 1.84733e-07 1.08601e-06 0.0005 
1496 1 -0.00206779 -0.0124474 0.000499769 -2.01726e-05 6.28582e-06 -2.92934e-06 4.91e-08 1.22673e-07 -4.53452e-08 3.26261e-07 3.48144e-07 1.12973e-06 0.0005 
502 1 -0.000772646 -0.012519 0.00049942 -4.06853e-05 2.47329e-05 1.45144e-05 1.42477e-07 1.97694e-07 -3.74621e-08 3.19261e-07 3.19503e-07 1.02236e-06 0.0005 
1195 1 -0.00706598 -0.0111049 0.000499524 -3.79944e-06 1.62612e-05 6.76466e-06 -2.63335e-08 1.33115e-08 2.54799e-08 -3.20732e-07 -1.83312e-09 1.34253e-06 0.0005 
1356 1 -0.00631327 -0.011763 0.000499737 3.40785e-07 -8.24941e-06 3.1677e-06 -6.20458e-08 2.22395e-08 3.38535e-08 -2.59858e-07 2.88336e-08 1.50396e-06 0.0005 
939 1 -0.00514862 -0.0116571 0.000499567 -1.75273e-05 -1.29106e-05 7.29712e-06 2.60985e-08 7.47985e-08 1.22969e-07 -8.87481e-08 7.10689e-08 1.1236e-06 0.0005 
1758 1 -0.00413766 -0.0116632 0.000499663 9.01825e-05 -0.000155415 -4.43613e-07 4.96981e-08 1.82183e-07 4.62598e-08 8.0893e-08 1.40554e-07 1.00498e-06 0.0005 
656 1 -0.00321989 -0.0112548 0.000500339 -7.35022e-05 -4.95458e-05 -5.56947e-05 -4.88951e-08 2.23416e-08 3.41768e-08 3.76139e-07 3.13077e-07 1.05626e-06 0.0005 
758 1 -0.00220699 -0.0114572 0.000499692 -2.43323e-05 -2.17246e-05 1.19256e-07 5.61852e-08 3.95274e-08 -1.04226e-08 2.87029e-07 2.43935e-07 9.51021e-07 0.0005 
319 1 -0.00114158 -0.0115515 0.000499727 0.000993722 -0.000598802 2.59626e-06 -1.5413e-07 -9.65588e-08 2.46564e-07 2.01048e-07 1.49292e-07 9.02432e-07 0.0005 
511 1 -1.25514e-05 -0.0111136 0.000499422 3.791e-05 -8.40964e-05 5.59281e-05 -1.86031e-07 2.26004e-07 1.49093e-07 -6.85825e-08 -1.13214e-07 9.5008e-07 0.0005 
1144 1 -0.00802769 -0.0106668 0.000499752 -2.1929e-05 2.66483e-05 -5.11106e-06 2.85799e-08 -5.15168e-08 -8.8781e-09 -4.1141e-07 -6.03766e-08 1.29923e-06 0.0005 
353 1 -0.00577708 -0.0108796 0.000499623 -5.66514e-05 -7.5528e-05 2.40829e-05 7.50942e-08 1.15721e-07 3.41447e-08 -1.35285e-07 2.58063e-08 1.03661e-06 0.0005 
1818 1 -0.00394057 -0.0105623 0.000499533 -7.10476e-05 -9.32243e-05 -1.25662e-05 5.98157e-08 1.52129e-07 2.62765e-08 3.40129e-07 2.59679e-07 1.05307e-06 0.0005 
1873 1 -0.00258345 -0.010484 0.000499521 -6.82762e-05 -6.48955e-05 -3.63426e-05 -5.11334e-09 9.90223e-09 -1.6249e-08 3.19938e-07 1.81648e-07 1.0087e-06 0.0005 
2211 1 -0.000754505 -0.0104433 0.000499447 -5.52242e-05 -1.40271e-05 5.02515e-05 -9.10932e-08 -1.13388e-08 -4.24298e-08 6.76709e-08 -1.10606e-07 9.18387e-07 0.0005 
647 1 -0.00885797 -0.00998802 0.000499732 -1.57735e-05 2.33059e-05 -1.59846e-06 -1.48813e-08 -2.27037e-08 4.62969e-09 -3.20631e-07 -1.91745e-07 1.25326e-06 0.0005 
542 1 -0.00734057 -0.00994049 0.000499492 -1.70782e-05 1.89968e-05 -8.07687e-06 -4.39626e-09 -6.20933e-08 1.54157e-09 -3.72429e-07 -2.32401e-08 1.00167e-06 0.0005 
1585 1 -0.00535689 -0.00993907 0.000499473 -2.81307e-05 -5.54915e-05 4.59146e-06 3.29486e-08 6.56885e-08 1.73742e-09 6.86761e-09 2.86384e-08 1.03904e-06 0.0005 
2142 1 -0.00325446 -0.00974288 0.000499512 5.80431e-07 -2.07855e-05 -2.18185e-05 -5.1535e-08 -8.73473e-09 4.96725e-08 2.12022e-07 1.99503e-07 9.25271e-07 0.0005 
2090 1 -0.00148636 -0.00976184 0.000499804 -7.34346e-05 -2.97625e-05 -1.58826e-05 -5.57084e-08 -4.36543e-08 3.52237e-08 9.30909e-08 -3.13061e-07 9.60156e-07 0.0005 
2330 1 -0.00886386 -0.00898529 0.000499251 -7.88449e-06 2.44193e-05 -6.31181e-06 -1.32963e-08 2.18383e-08 4.14471e-09 -3.24507e-07 -2.18298e-07 8.90397e-07 0.0005 
733 1 -0.00681313 -0.00907648 0.000499617 -1.45617e-05 1.05643e-05 -4.95149e-06 -2.2124e-08 2.12166e-08 -3.9648e-08 -1.97445e-07 7.27701e-08 9.88592e-07 0.0005 
1443 1 -0.00575393 -0.00889395 0.000499614 -1.51659e-05 -8.81643e-06 1.22556e-05 2.85121e-08 -6.87037e-08 -2.60833e-08 3.34927e-08 -2.40705e-09 1.00748e-06 0.0005 
1221 1 -0.00475424 -0.00887342 0.000499503 -1.10044e-05 -5.7947e-05 -5.86835e-06 -3.97339e-08 5.92711e-08 1.59732e-08 1.81674e-07 -2.14905e-08 1.00843e-06 0.0005 
388 1 -0.00320791 -0.00874404 0.000499746 -1.55966e-06 -4.35487e-05 7.77357e-07 -2.05204e-08 -3.06549e-09 5.24393e-08 1.29409e-07 1.04727e-07 9.15452e-07 0.0005 
823 1 -0.00235803 -0.00927084 0.000499729 -3.81221e-05 -6.38837e-05 -1.76583e-05 -6.00057e-08 -1.20698e-08 6.3391e-08 1.1516e-07 -1.95294e-08 9.23539e-07 0.0005 
714 1 -0.00108532 -0.00881393 0.000499395 1.23462e-06 -8.65636e-05 -1.05433e-08 2.24405e-08 -4.43156e-08 9.40464e-08 -3.98916e-08 -4.81427e-07 9.71917e-07 0.0005 
462 1 -8.70445e-05 -0.00886724 0.000499478 -5.69669e-06 -3.93176e-05 8.87293e-06 7.32387e-08 -3.86745e-09 1.34214e-07 -9.43813e-08 -4.20395e-07 8.42765e-07 0.0005 
529 1 -0.010211 -0.00860026 0.000499768 -6.64688e-06 3.03984e-06 -1.01837e-05 3.20542e-08 -3.13754e-08 1.90595e-09 1.54929e-07 -5.85989e-07 1.22811e-06 0.0005 
359 1 -0.00934135 -0.00810706 0.000499629 -3.09448e-05 1.15649e-05 -1.98172e-05 -1.23843e-08 7.57627e-08 -4.03366e-08 -2.52921e-07 -2.78259e-07 8.90837e-07 0.0005 
1505 1 -0.00808099 -0.00836322 0.000499711 6.8371e-05 -3.82122e-06 -9.70277e-06 9.15506e-08 -1.40751e-08 -1.55439e-10 -3.42413e-07 -3.03806e-08 8.63133e-07 0.0005 
2252 1 -0.00614179 -0.00797127 0.000499696 -8.36075e-06 -6.44454e-06 5.53316e-06 9.46009e-08 3.96308e-09 -3.17825e-08 -5.03959e-08 9.93207e-08 9.52751e-07 0.0005 
2042 1 -0.00232661 -0.00827162 0.000499688 -1.76907e-06 -4.85799e-05 5.49595e-06 1.01814e-07 -3.12678e-08 2.5283e-08 -2.47389e-09 -2.76499e-07 8.9706e-07 0.0005 
1539 1 -0.0108395 -0.00779301 0.000499735 -5.90973e-06 5.66892e-05 -9.76153e-05 4.27305e-08 -8.46519e-08 -7.67345e-08 3.47737e-07 -4.81724e-07 1.44042e-06 0.0005 
986 1 -0.00813498 -0.00736478 0.000499774 1.43933e-05 1.22213e-05 -2.68339e-05 9.39924e-08 -7.11932e-09 7.45686e-09 -4.87328e-07 -2.47723e-07 9.0794e-07 0.0005 
1847 1 -0.00710388 -0.00769903 0.000499414 -9.66169e-06 -3.59035e-06 -2.13494e-06 4.21118e-08 4.17253e-08 1.15945e-08 -2.26864e-07 2.38064e-09 9.79772e-07 0.0005 
1447 1 -0.0056125 -0.00712078 0.000499725 -3.26432e-05 -2.48888e-05 3.56049e-06 -1.43757e-08 -1.11367e-07 -9.90483e-09 1.51106e-08 9.85073e-08 9.7617e-07 0.0005 
1848 1 -0.00461941 -0.00723788 0.000499634 -2.36987e-05 -4.56239e-05 3.17512e-07 -7.30939e-09 1.24177e-07 4.09827e-08 1.20228e-07 2.52127e-07 1.03609e-06 0.0005 
2417 1 -0.00359189 -0.00734824 0.000499611 -1.77328e-05 -6.7499e-05 -8.75035e-06 8.34595e-08 -1.10547e-08 7.41163e-08 -3.67241e-08 2.19648e-08 9.67459e-07 0.0005 
1462 1 -0.00259292 -0.00730804 0.000499384 -2.91716e-05 -6.04384e-05 1.84607e-05 1.11002e-07 3.79258e-08 2.85909e-09 -1.48911e-07 -3.15719e-07 8.96808e-07 0.0005 
46 1 -0.00131138 -0.00784 0.000499721 -5.69191e-05 -7.6495e-05 -1.00072e-05 1.16841e-07 -1.84675e-08 -5.54762e-08 -1.85588e-07 -6.02461e-07 1.00077e-06 0.0005 
1432 1 -0.000191069 -0.00787304 0.000499489 2.02987e-05 -2.40223e-05 9.05859e-06 2.97222e-08 1.38154e-08 6.73025e-09 -4.25023e-08 -5.36262e-07 9.3904e-07 0.0005 
2195 1 -0.0115941 -0.00660298 0.000499579 1.56905e-05 -2.93889e-06 5.78193e-06 4.95365e-09 7.18774e-08 -5.66782e-08 7.09701e-07 -1.38377e-07 1.75017e-06 0.0005 
1429 1 -0.0105931 -0.00682386 0.000499796 5.14224e-05 9.88306e-05 1.56135e-05 -3.02655e-08 3.57763e-08 8.05311e-08 4.58747e-07 -1.77248e-07 1.04209e-06 0.0005 
551 1 -0.00959911 -0.00693309 0.000499608 2.06677e-05 2.35275e-05 8.315e-06 -1.06762e-07 -1.33469e-07 -4.99657e-08 -6.06342e-09 -2.15294e-07 9.25272e-07 0.0005 
490 1 -0.00778409 -0.00634572 0.000499518 -3.94768e-05 -1.48829e-05 -1.32821e-05 2.32536e-07 -2.9729e-09 -1.58645e-08 -3.13315e-07 -1.52266e-07 9.68514e-07 0.0005 
1485 1 -0.00647211 -0.00658752 0.00049969 -4.55753e-05 -3.23171e-05 -1.02485e-05 1.70386e-07 -1.12273e-08 -7.58545e-09 8.54552e-08 -1.14278e-07 9.86996e-07 0.0005 
74 1 -0.00405301 -0.00640122 0.000499608 -6.19848e-05 -9.99168e-05 -6.36939e-06 2.74921e-08 -1.1501e-07 7.09466e-09 -3.22797e-08 3.05495e-07 8.57865e-07 0.0005 
606 1 -0.0109682 -0.00581801 0.000499792 -3.82982e-05 -3.68286e-05 -1.04692e-05 1.15236e-07 -4.0772e-09 6.83177e-09 6.36413e-07 -3.27166e-08 1.18958e-06 0.0005 
1293 1 -0.00998723 -0.00601166 0.000499658 -4.82611e-05 -8.61233e-06 5.26384e-06 1.0844e-07 -5.99775e-08 -1.07379e-08 5.50066e-07 -3.82673e-08 1.05436e-06 0.0005 
1263 1 -0.00881618 -0.00631106 0.000499788 0.0011698 -0.00141885 -4.81598e-06 -2.25921e-08 -8.58954e-08 1.1736e-07 -2.00908e-07 -2.27982e-07 9.41061e-07 0.0005 
1248 1 -0.00701435 -0.00570739 0.000499716 -6.15847e-05 -3.27532e-05 -3.86582e-06 8.14083e-08 2.40598e-08 5.04686e-08 -6.44124e-08 -6.11066e-08 9.86903e-07 0.0005 
1101 1 -0.00560756 -0.00601573 0.00049943 -5.34563e-05 -4.51537e-05 9.88669e-06 1.47696e-08 -9.49043e-08 -1.16492e-09 2.44567e-07 2.04708e-09 9.91319e-07 0.0005 
817 1 -0.00467783 -0.00561507 0.000499589 -1.49383e-05 -2.12118e-05 -2.56222e-05 -1.51038e-08 -1.99934e-07 -1.72338e-08 5.98565e-08 3.16877e-07 8.60449e-07 0.0005 
1969 1 -0.00335207 -0.0055903 0.000499438 8.09917e-06 -3.45208e-05 -1.32321e-06 3.63334e-08 -9.48927e-08 -1.47962e-08 -5.84203e-07 -1.11384e-07 8.74364e-07 0.0005 
266 1 -0.0022526 -0.00609437 0.000499502 -4.09362e-05 -6.97739e-05 1.02728e-05 6.04435e-08 3.1853e-08 -1.63389e-08 -7.92913e-07 -5.4511e-07 8.8302e-07 0.0005 
1477 1 -0.000925546 -0.00625168 0.000499615 -3.49871e-05 -5.90141e-05 -2.7059e-06 2.1681e-08 1.67048e-08 -1.64718e-08 -1.50267e-07 -5.66716e-07 1.18826e-06 0.0005 
740 1 -7.87172e-05 -0.00559624 0.000499662 6.60896e-05 -0.000169365 2.56454e-07 2.43441e-08 3.4634e-08 2.20595e-08 3.28024e-07 -3.58838e-07 9.21293e-07 0.0005 
1091 1 -0.0121722 -0.00548364 0.000499557 4.07268e-06 1.19258e-05 5.72276e-06 -5.92773e-10 6.36891e-08 1.9824e-08 5.38216e-07 -2.20751e-08 1.83438e-06 0.0005 
900 1 -0.0113616 -0.0048986 0.0004996 -2.41345e-05 4.40366e-05 -3.94256e-06 -2.05138e-09 6.23533e-08 -4.77854e-09 4.83024e-07 1.28049e-08 9.32975e-07 0.0005 
1315 1 -0.0103096 -0.00483505 0.000499606 -1.96061e-05 5.43086e-06 -5.29351e-06 9.27211e-08 -7.81651e-08 -5.73949e-08 4.99348e-07 1.77515e-08 1.03493e-06 0.0005 
53 1 -0.00867133 -0.005284 0.000499469 -6.17307e-05 -4.2458e-06 -9.13462e-06 9.44252e-08 -4.01808e-08 4.80954e-11 -1.35729e-08 -1.40819e-07 9.92829e-07 0.0005 
93 1 -0.0073168 -0.00475395 0.000499697 2.67707e-05 0.000106358 9.04022e-06 7.7625e-08 4.0159e-08 -9.25808e-09 3.88172e-10 1.2126e-07 9.55798e-07 0.0005 
1403 1 -0.00565053 -0.00495946 0.000499642 -1.04394e-05 -2.34914e-05 -1.30798e-05 7.60566e-08 -9.49798e-09 -3.97582e-08 2.09072e-07 9.80847e-08 9.87172e-07 0.0005 
2181 1 -0.00395589 -0.00479391 0.000499564 -1.92822e-05 -4.79528e-05 3.63997e-06 4.64558e-08 -9.16666e-08 1.95685e-08 -3.99441e-07 -4.23816e-08 8.74937e-07 0.0005 
152 1 -0.00257184 -0.00496519 0.000499807 -7.89353e-05 0.000119948 1.40775e-05 9.43245e-08 -1.35265e-07 -1.6742e-09 -7.55683e-07 -1.63205e-07 1.04153e-06 0.0005 
262 1 -0.000964234 -0.00509985 0.00049965 -0.000102149 -5.33722e-06 2.47874e-06 1.80186e-07 -5.8046e-08 -1.05113e-08 -1.73974e-07 -2.12084e-07 1.18979e-06 0.0005 
890 1 -0.0125482 -0.00455708 0.000499716 -7.74659e-06 6.54894e-06 5.52766e-06 -1.46921e-08 1.98542e-08 1.19604e-08 2.07196e-07 4.876e-09 1.65385e-06 0.0005 
2 1 -0.0108905 -0.00401676 0.000499721 -2.18628e-05 2.3908e-05 1.03252e-06 3.20808e-08 -6.47025e-09 -4.37325e-08 2.88413e-07 -3.92265e-09 9.57491e-07 0.0005 
12 1 -0.00938292 -0.00445973 0.000499672 -3.7889e-05 2.76495e-05 4.23458e-06 6.98003e-08 -2.01885e-08 -3.7082e-08 1.76611e-07 -5.37175e-08 9.95306e-07 0.0005 
1415 1 -0.00839232 -0.00432388 0.000499581 -2.07437e-05 -1.13597e-05 1.1063e-05 5.10492e-08 -8.2776e-09 -3.29187e-08 3.99977e-08 -8.60113e-10 9.69653e-07 0.0005 
2064 1 -0.00595358 -0.00400679 0.000499337 1.71408e-06 -1.749e-05 2.46864e-05 5.39234e-08 6.20526e-09 1.06122e-08 2.32558e-07 1.24588e-07 9.82714e-07 0.0005 
1452 1 -0.00495442 -0.00403511 0.000499672 -2.04027e-05 -4.00607e-05 1.91072e-05 1.38166e-07 1.29316e-09 1.0424e-08 -5.58172e-08 3.6716e-08 9.0089e-07 0.0005 
1459 1 -0.00317621 -0.00416811 0.000499512 -3.27723e-05 1.64142e-05 3.54742e-05 -2.05535e-08 7.21323e-10 4.85818e-08 -7.16762e-07 -3.43196e-09 1.05884e-06 0.0005 
1507 1 -0.00173755 -0.00441426 0.000499725 -0.000120897 0.000260392 2.24953e-06 1.43494e-08 -1.48018e-09 6.3138e-09 -5.47767e-07 -2.69307e-08 1.13957e-06 0.0005 
2217 1 -0.000783087 -0.00411659 0.000499599 -2.5312e-05 -4.89228e-05 1.57597e-05 3.41086e-08 7.17824e-08 -1.33489e-08 -6.62096e-08 1.37367e-07 1.19816e-06 0.0005 
982 1 -0.0128332 -0.00344608 0.000499675 -1.69485e-05 -3.24592e-05 -4.33107e-06 -8.85027e-09 8.41287e-08 -9.19573e-09 1.25444e-07 -2.34346e-08 1.54816e-06 0.0005 
1544 1 -0.00998373 -0.00359571 0.000499814 -1.54972e-05 1.34617e-05 -6.90036e-07 3.52866e-08 -1.0413e-07 -5.7715e-09 2.03322e-07 -3.71012e-08 9.75069e-07 0.0005 
2007 1 -0.00898678 -0.0035199 0.000499719 -2.90021e-05 2.06476e-06 1.72677e-06 2.67799e-08 -3.31392e-08 -3.30121e-08 1.01523e-07 2.55484e-08 9.92277e-07 0.0005 
1617 1 -0.00781312 -0.00350218 0.000499428 -2.49388e-05 -3.7542e-05 -2.33336e-05 2.07975e-08 -4.76709e-08 -2.65883e-09 7.65738e-08 3.53208e-08 9.4206e-07 0.0005 
230 1 -0.00402748 -0.00362982 0.000499612 -2.15752e-05 -4.60907e-05 6.12131e-05 -8.2363e-09 1.2402e-07 9.15825e-09 -3.62229e-07 2.96074e-08 8.75402e-07 0.0005 
1067 1 -0.0023967 -0.00354211 0.000499599 -5.56262e-05 5.58866e-05 2.42465e-05 -4.57569e-08 6.69911e-08 -9.23102e-09 -7.26007e-07 1.15478e-07 1.02499e-06 0.0005 
9 1 -0.0130662 -0.00247369 0.000499675 -5.02434e-05 1.89962e-06 -2.79342e-05 1.93632e-08 -4.36393e-08 -3.3298e-08 2.53946e-07 -1.79517e-07 1.70989e-06 0.0005 
2406 1 -0.0116622 -0.0030631 0.000499511 1.03105e-05 -9.87597e-06 -6.19505e-06 5.45807e-08 -5.9004e-08 -3.92689e-08 2.44167e-07 -7.59893e-08 9.92811e-07 0.0005 
178 1 -0.0095351 -0.00268031 0.000499705 -7.53077e-06 -9.59684e-05 9.31158e-06 4.74447e-08 -2.02315e-07 -4.34183e-09 1.38981e-07 -7.66559e-08 9.93023e-07 0.0005 
1238 1 -0.00853013 -0.00263057 0.000499591 -2.92112e-05 -5.52948e-06 -3.69414e-06 -1.19163e-08 -7.12651e-08 -2.3015e-09 8.97518e-08 -8.67876e-08 9.68552e-07 0.0005 
1610 1 -0.00702243 -0.00270126 0.000499782 -9.452e-05 -0.000291329 4.42977e-06 3.97149e-08 -1.17631e-07 1.87564e-08 1.4054e-07 1.42443e-08 9.34129e-07 0.0005 
391 1 -0.00603953 -0.00288519 0.000499788 -3.96545e-05 -0.000157888 2.79641e-06 8.43576e-08 -3.58932e-08 1.41684e-08 1.09747e-07 8.61717e-08 9.24302e-07 0.0005 
1178 1 -0.00505164 -0.00303989 0.000499782 -2.56131e-06 6.91905e-06 -2.48899e-05 1.55804e-07 1.00673e-07 1.82536e-08 -1.44115e-08 7.40673e-08 8.87768e-07 0.0005 
1798 1 -0.00415412 -0.00259921 0.000499675 -1.90805e-05 -5.49102e-05 7.66024e-06 1.69575e-07 3.36988e-07 -3.59451e-08 -2.05346e-07 7.23051e-08 8.6816e-07 0.0005 
619 1 -0.00324096 -0.00300642 0.000499646 -2.46496e-05 1.51825e-05 -3.22711e-05 2.07067e-08 2.97241e-08 1.15276e-08 -6.01288e-07 1.33288e-07 9.13511e-07 0.0005 
38 1 -0.00237272 -0.00251061 0.000499644 -7.35201e-05 8.79673e-05 4.3649e-05 -1.05324e-07 2.66116e-07 1.58529e-08 -7.56802e-07 2.33342e-07 9.23245e-07 0.0005 
736 1 -0.000798369 -0.00294503 0.000499655 -3.17137e-05 0.000178111 2.61236e-05 -3.01531e-08 1.24316e-07 1.31415e-07 -3.50826e-07 2.08097e-07 1.14615e-06 0.0005 
186 1 -0.0124339 -0.00169934 0.000499386 3.72474e-05 -7.28509e-05 2.29285e-05 -7.77405e-08 8.85061e-08 2.71344e-09 4.24925e-07 -2.78269e-07 1.1702e-06 0.0005 
459 1 -0.0114423 -0.00208783 0.000499732 1.38287e-05 1.41498e-06 3.38227e-06 -5.12125e-08 -1.44337e-07 3.80919e-08 3.77178e-07 -2.17875e-07 9.7956e-07 0.0005 
866 1 -0.0104734 -0.00233489 0.00049972 8.05315e-06 -7.01851e-06 6.24318e-06 2.19591e-08 2.36049e-08 3.64659e-08 2.34838e-07 -1.92817e-07 9.14424e-07 0.0005 
1411 1 -0.00937824 -0.00168527 0.00049973 -9.7948e-05 -3.50978e-05 -1.41587e-05 1.53559e-07 -9.46363e-08 -6.20122e-08 9.97339e-08 -3.45132e-07 9.34478e-07 0.0005 
1278 1 -0.00774562 -0.00201071 0.000499587 2.67809e-05 -8.95148e-05 1.10349e-06 3.12159e-08 -1.06455e-07 1.55289e-08 1.20731e-07 -1.3531e-07 9.56859e-07 0.0005 
62 1 -0.00596949 -0.00188508 0.000499739 -5.79887e-05 -0.000108604 -5.79489e-06 -1.09791e-07 -2.06692e-07 1.11425e-08 1.71658e-07 -6.78139e-08 9.27745e-07 0.0005 
1669 1 -0.00498127 -0.00203751 0.00049956 -5.15387e-05 -7.67288e-05 1.00085e-05 -2.19674e-08 4.16802e-08 8.43601e-09 1.9919e-08 -7.38167e-08 8.43507e-07 0.0005 
695 1 -0.00125146 -0.0019732 0.000499765 -0.00015377 -4.76525e-05 -4.71561e-06 8.78719e-08 2.09316e-07 -1.52901e-08 -5.09495e-07 1.36356e-07 1.11987e-06 0.0005 
1530 1 -0.0132966 -0.00119369 0.000499816 3.80386e-05 -3.71614e-05 -1.40265e-05 -1.5566e-08 1.67582e-07 1.73999e-08 3.31877e-07 -2.51405e-07 1.83594e-06 0.0005 
1654 1 -0.0107123 -0.00136396 0.000499538 -2.74079e-05 -2.20745e-05 1.6632e-05 1.94186e-08 1.53524e-07 -1.01156e-07 3.92027e-07 -3.01853e-07 9.83472e-07 0.0005 
299 1 -0.00770706 -0.000997391 0.000499798 0.000860865 -0.000394996 1.28561e-07 3.62404e-08 -2.30588e-07 5.19003e-10 8.40746e-08 -2.98368e-07 9.96858e-07 0.0005 
98 1 -0.00667856 -0.00106336 0.000499366 -3.12233e-05 -6.15868e-05 -2.51177e-05 9.86379e-09 -1.18949e-07 -8.79981e-08 2.81098e-07 -1.24431e-07 9.49285e-07 0.0005 
1060 1 -0.00391271 -0.00156551 0.00049945 -7.24474e-05 -4.21503e-05 -3.10825e-05 -2.07341e-09 1.11127e-07 3.87635e-08 -2.83064e-07 -3.00861e-07 8.16325e-07 0.0005 
781 1 -0.00214734 -0.00125852 0.000499752 -6.43212e-05 5.21004e-06 -5.01764e-06 1.03434e-07 -5.60917e-08 -1.43097e-08 -6.94239e-07 -7.53321e-08 8.85554e-07 0.0005 
1955 1 -0.000334685 -0.00148223 0.000499558 -6.31501e-05 -6.16905e-05 -1.97337e-06 -3.05527e-08 1.31292e-08 6.73778e-08 -3.16734e-07 3.72829e-08 1.00538e-06 0.0005 
967 1 -0.0133488 -0.000189735 0.000499831 -3.24761e-05 -8.86283e-05 7.58512e-06 6.04739e-08 -1.75703e-09 8.65238e-09 2.63804e-07 -1.22646e-07 1.82087e-06 0.0005 
1675 1 -0.0124486 -0.000624494 0.000499642 -7.12749e-05 -0.000122861 -6.96253e-06 2.102e-07 9.61456e-08 -5.07361e-08 4.22658e-07 -2.79757e-07 1.17204e-06 0.0005 
2125 1 -0.0113997 -3.38446e-05 0.000499796 0.000191194 1.71927e-05 -6.00914e-06 6.7024e-08 1.54138e-08 -2.53632e-08 2.37898e-07 -2.10925e-07 1.06449e-06 0.0005 
2169 1 -0.0095274 -0.000696525 0.000499643 -4.33267e-05 -2.63104e-05 -3.21711e-05 1.04409e-07 1.85265e-08 2.11903e-08 1.16548e-07 -4.64953e-07 9.25636e-07 0.0005 
6577 1 -0.00858025 -0.000376512 0.000499423 -4.70593e-05 -7.57367e-05 -5.1025e-06 1.37194e-08 4.81797e-08 -2.66595e-08 2.00796e-07 -2.96963e-07 9.4348e-07 0.0005 
6638 1 -0.0068277 -7.50792e-05 0.000499619 -9.51285e-05 -8.58828e-05 1.25323e-05 -5.99271e-08 -4.31241e-08 2.8443e-08 2.34539e-07 -8.26919e-08 7.8903e-07 0.0005 
1600 1 -0.00576801 -0.000650651 0.000499558 -7.86016e-05 -9.85705e-05 4.36676e-05 -1.24655e-07 -7.89787e-09 -2.22625e-08 3.05846e-07 -1.9594e-07 9.36086e-07 0.0005 
5393 1 -0.004999 -1.09378e-05 0.00049972 0.00142377 -0.00082842 1.93862e-05 -2.35152e-06 3.1969e-06 1.64259e-07 -7.39707e-08 -3.80321e-07 8.93761e-07 0.0005 
108 1 -0.00327835 -0.000743473 0.000499615 -6.469e-05 -0.000115097 -1.81568e-05 -3.11716e-08 -3.83248e-07 4.36368e-08 -4.78604e-07 -3.36499e-07 8.63667e-07 0.0005 
288 1 -0.00179652 -0.000322196 0.000499482 -6.44614e-05 -1.35024e-05 9.55664e-06 -9.78983e-09 2.52052e-08 -2.06709e-08 -4.34626e-07 -1.48221e-07 9.17746e-07 0.0005 
1934 1 -0.000391987 -0.000484039 0.000499624 -5.64115e-05 -6.71859e-05 -3.21494e-06 -3.91868e-08 -9.30413e-09 -1.14335e-07 -1.72678e-07 3.50692e-08 9.97114e-07 0.0005 
1180 1 -0.00374417 -0.0128145 0.000923439 -3.10121e-05 6.56387e-07 -2.78623e-06 6.07317e-08 -3.08229e-08 4.20257e-08 3.69379e-09 7.18375e-08 2.044e-06 0.0005 
1047 1 -0.002713 -0.0130718 0.000940039 -2.60757e-05 -1.58311e-05 7.25254e-06 9.7176e-08 5.06892e-08 2.3396e-08 1.80173e-07 1.89279e-07 2.11702e-06 0.0005 
2053 1 -0.00467727 -0.0125041 0.000744026 -6.1976e-06 4.13155e-07 -3.84523e-05 1.62328e-09 -5.48729e-09 5.55645e-08 -9.48243e-08 6.66444e-08 1.87085e-06 0.0005 
427 1 -0.0047733 -0.0110148 0.00116742 -8.38888e-05 -1.52506e-05 4.07265e-05 1.03484e-07 9.09971e-08 1.48065e-07 7.72561e-08 1.17623e-07 2.0542e-06 0.0005 
2081 1 -0.00166399 -0.0106872 0.000834595 -9.79351e-05 -2.71342e-05 -2.05491e-05 -6.08611e-08 1.83465e-07 -5.10784e-08 1.99395e-07 9.91851e-08 1.4152e-06 0.0005 
1375 1 -0.00811406 -0.00948152 0.000935502 -6.92409e-06 3.99462e-05 -5.01552e-06 -6.1237e-08 -9.59301e-08 -3.06214e-08 -4.22913e-07 -7.84926e-08 1.86155e-06 0.0005 
1658 1 -0.0063487 -0.01006 0.000530919 -2.65303e-05 -5.97757e-05 6.68717e-07 1.5238e-08 4.08224e-08 2.87079e-08 -1.8338e-07 -1.92132e-08 1.10439e-06 0.0005 
110 1 -0.00455683 -0.0100418 0.00108983 -2.00813e-05 -4.19303e-05 5.54669e-06 2.28918e-08 1.54801e-07 4.12385e-08 1.47079e-07 9.54471e-08 1.88623e-06 0.0005 
1487 1 -0.00224123 -0.00992014 0.00125082 -0.000189548 -9.44857e-05 1.58304e-05 1.28057e-07 4.19008e-09 1.11317e-07 1.47709e-07 1.29267e-08 1.97183e-06 0.0005 
2461 1 -0.0095836 -0.00929468 0.00111974 1.36505e-05 8.00431e-06 1.43818e-05 6.30378e-08 5.1956e-09 1.03291e-07 -7.60873e-08 -4.24229e-07 2.07295e-06 0.0005 
1750 1 -0.00396577 -0.00924162 0.00099165 -1.34031e-05 -6.97724e-05 -3.9948e-05 5.34347e-08 1.08541e-07 4.84237e-08 1.87463e-07 1.5334e-07 1.87324e-06 0.0005 
243 1 -0.00696509 -0.00838897 0.0012095 5.83423e-05 -2.24756e-05 -2.37317e-05 2.43379e-08 4.93448e-09 -1.84116e-08 -1.37466e-07 2.72868e-07 2.49013e-06 0.0005 
948 1 -0.00518301 -0.00801483 0.000779658 -1.19344e-05 -2.64056e-05 8.03986e-06 1.04319e-07 1.23829e-08 -3.23619e-08 1.20329e-07 1.66281e-07 1.54483e-06 0.0005 
793 1 -0.0040305 -0.00821943 0.000718541 -7.1787e-06 -6.00385e-05 -1.76758e-05 -3.70881e-09 3.36934e-08 1.34957e-07 1.35653e-07 1.22558e-07 1.17613e-06 0.0005 
1694 1 -0.00169992 -0.00852971 0.00123463 -7.3594e-06 -0.000105259 1.00449e-05 1.61016e-07 6.59372e-08 7.3588e-08 -5.80634e-08 -3.98482e-07 1.94413e-06 0.0005 
842 1 -0.0100258 -0.00764205 0.00106076 -0.000129775 -9.0976e-06 -0.000136805 -1.28918e-07 -1.36529e-07 -8.55167e-08 6.5327e-08 -3.98013e-07 1.79688e-06 0.0005 
239 1 -0.00900636 -0.00741919 0.00114286 -3.23741e-05 1.88472e-05 -2.71551e-05 -8.78485e-08 2.5386e-07 -1.81225e-07 -4.38817e-07 -2.99728e-07 2.01717e-06 0.0005 
13 1 -0.00304939 -0.00786691 0.00119107 -2.03858e-05 -9.74161e-05 3.06224e-05 1.10276e-07 1.43067e-07 8.99982e-08 1.18301e-08 -2.09583e-07 2.01334e-06 0.0005 
1059 1 -0.00717927 -0.00674286 0.00118929 -1.80373e-05 -9.87044e-06 -1.30504e-05 3.50058e-07 1.3241e-07 -4.77464e-09 -2.18545e-07 -1.2885e-07 2.14523e-06 0.0005 
830 1 -0.00488402 -0.00642478 0.00105467 -6.65844e-05 -0.000108751 1.18708e-05 8.8414e-09 -5.31925e-08 -4.70517e-09 9.97056e-08 2.74365e-07 1.73164e-06 0.0005 
515 1 -0.00310839 -0.00650922 0.000807993 -6.56436e-05 -8.96329e-05 9.75451e-06 3.83868e-08 -5.3564e-08 7.68048e-09 -5.33409e-07 -2.60541e-07 1.321e-06 0.0005 
2336 1 -0.00167659 -0.00691034 0.000540922 -2.81515e-05 -6.03813e-05 1.12594e-06 8.1355e-08 2.35175e-08 -3.35239e-08 -3.21669e-07 -5.18285e-07 8.85395e-07 0.0005 
2421 1 -0.000547125 -0.00705751 0.000954567 -7.45781e-06 -4.25761e-05 1.36097e-05 7.72152e-08 9.6598e-08 -3.16036e-08 -9.33873e-08 -6.05198e-07 1.89906e-06 0.0005 
1645 1 -0.00625532 -0.00560915 0.00114288 -5.76098e-05 -4.71385e-05 3.16832e-06 7.58636e-08 2.72306e-08 1.02353e-07 2.84041e-07 -7.30535e-08 2.1419e-06 0.0005 
100 1 -0.00401327 -0.00568645 0.00124298 -4.18754e-05 -9.86071e-07 -2.54207e-05 -2.59069e-08 -7.82909e-08 4.29855e-09 -1.19751e-07 3.08968e-07 1.98075e-06 0.0005 
2208 1 -0.00153279 -0.00569535 0.00106669 -3.89102e-05 -7.95182e-05 2.25872e-05 9.63954e-08 1.73967e-08 -2.79016e-09 -4.35638e-07 -4.32864e-07 2.14478e-06 0.0005 
1899 1 -0.0103887 -0.00548404 0.00125573 -4.81457e-05 2.91879e-05 5.66401e-06 7.10048e-08 -1.8757e-08 -1.40278e-07 7.12354e-07 4.17289e-08 2.492e-06 0.0005 
220 1 -0.00939644 -0.00552597 0.0011434 -4.68594e-05 -3.17341e-06 3.88784e-06 9.88979e-08 -4.37911e-08 -4.3456e-08 3.08287e-07 -7.38216e-08 2.23818e-06 0.0005 
1211 1 -0.0078423 -0.00549261 0.00101729 -7.04478e-05 -4.21899e-05 -1.24205e-05 1.46994e-07 2.779e-08 -2.66258e-09 -1.76394e-07 -3.65276e-08 1.7629e-06 0.0005 
565 1 -0.00329394 -0.00482027 0.0012483 -2.41959e-05 -4.67121e-05 -1.2644e-05 2.91567e-08 -5.81023e-08 9.60272e-09 -5.83148e-07 -4.22033e-08 2.06729e-06 0.0005 
2300 1 -0.0118199 -0.00397921 0.000867308 -2.04658e-05 4.63334e-06 5.72947e-05 8.4181e-08 -2.8911e-09 -4.08747e-08 2.01837e-07 4.24729e-08 1.76551e-06 0.0005 
1986 1 -0.00646758 -0.00463403 0.00108384 -3.53521e-05 -4.01529e-05 -8.7985e-06 1.5344e-07 7.61157e-09 -3.6486e-08 2.01002e-07 9.73398e-08 1.98315e-06 0.0005 
1236 1 -0.0046219 -0.0046344 0.00122744 -7.2326e-05 -0.000106276 -2.07557e-05 7.99462e-09 -3.24391e-08 4.13718e-08 -1.64796e-07 -1.24591e-08 1.97736e-06 0.0005 
483 1 -0.0025226 -0.00418402 0.00125575 -1.04063e-05 1.62915e-06 7.58611e-06 6.05059e-08 4.9196e-08 -1.48984e-08 -9.43315e-07 -2.4933e-08 2.61247e-06 0.0005 
696 1 -0.00687017 -0.00370589 0.000761199 5.48534e-05 0.000307579 -4.11458e-05 -1.74531e-07 -8.2009e-07 1.38586e-07 1.19035e-07 1.05278e-07 1.28427e-06 0.0005 
704 1 -0.00148693 -0.00353959 0.000914131 -9.62763e-05 0.000272537 4.45159e-05 -1.90972e-07 7.52644e-08 1.35798e-07 -3.92698e-07 1.45982e-07 1.77851e-06 0.0005 
2160 1 -7.79648e-05 -0.00354602 0.000919562 3.41269e-05 -0.000118282 5.0924e-06 -6.45367e-08 2.5297e-07 -1.36121e-08 -6.28517e-08 1.67708e-10 1.70936e-06 0.0005 
532 1 -0.0107927 -0.00314847 0.000985315 -3.0255e-05 2.68722e-05 1.82877e-05 2.01955e-08 -4.8755e-08 -5.9598e-08 1.84308e-07 -6.70893e-08 1.89165e-06 0.0005 
1201 1 -0.00781523 -0.00277349 0.00118379 1.52832e-05 -4.69614e-05 -4.90383e-05 -3.99946e-08 -6.12157e-08 2.64414e-08 1.08687e-07 -2.01282e-08 2.1986e-06 0.0005 
2224 1 -0.0085511 -0.00179768 0.00105186 -3.68656e-05 -3.33077e-05 -3.06267e-05 6.10624e-08 -5.1912e-08 4.85475e-08 6.68714e-08 -2.22327e-07 1.63152e-06 0.0005 
1596 1 -0.0069682 -0.00181141 0.00109572 -2.19998e-05 -3.80398e-05 -2.68121e-06 1.29569e-08 -2.23131e-08 -1.93408e-08 1.29442e-07 -7.86845e-08 1.61484e-06 0.0005 
2261 1 -0.00297029 -0.00175657 0.000772421 -8.72524e-05 6.21568e-05 9.87677e-05 -6.65281e-08 3.2203e-07 2.21609e-07 -6.41282e-07 -3.32332e-08 1.34097e-06 0.0005 
78 1 -0.0116473 -0.00115113 0.000782424 6.09831e-07 6.91205e-06 -4.72787e-05 8.62366e-08 -1.65428e-07 -3.21467e-08 4.75834e-07 -2.99881e-07 1.59631e-06 0.0005 
367 1 -0.0100464 -0.00116079 0.00121709 4.98656e-05 -0.000125508 -1.35757e-05 -1.40421e-07 7.81081e-08 1.91805e-08 2.09205e-07 -4.64873e-07 2.24373e-06 0.0005 
5 1 -0.00507337 -0.00117322 0.000993185 -9.42597e-05 -9.68369e-05 4.75663e-05 -1.23812e-07 2.32433e-07 -1.03188e-07 9.67234e-08 -3.71608e-07 1.59903e-06 0.0005 
1357 1 -0.00116668 -0.00102949 0.000819246 -0.000109649 -5.10791e-05 -4.04609e-06 3.48053e-09 1.67157e-07 7.65338e-08 -4.78025e-07 -9.01931e-08 1.62717e-06 0.0005 
2095 1 -0.0104742 -0.000400931 0.000623459 -2.93054e-05 -1.29523e-05 3.61332e-05 1.96589e-07 8.03486e-08 3.34696e-08 3.0192e-07 -3.42827e-07 1.13763e-06 0.0005 
42 1 -0.00420864 -0.000686578 0.000872816 -0.000154846 -4.19502e-05 -4.30537e-05 -2.47409e-08 1.71903e-08 -4.46878e-08 -1.39691e-07 -6.77286e-07 1.39161e-06 0.0005 
548 1 -0.0025316 -0.000552982 0.00113658 -5.74496e-05 -2.77557e-05 -2.83237e-05 1.24876e-07 1.20384e-08 2.30761e-07 -5.87485e-07 -2.15915e-07 2.11332e-06 0.0005 
805 1 -0.0029365 -0.0130231 0.0019133 -0.00026159 -2.34633e-06 -7.40085e-05 -5.62158e-08 1.47848e-07 -3.6984e-08 1.10095e-07 6.05356e-08 3.23162e-06 0.0005 
643 1 -0.00198759 -0.0132016 0.00161534 -3.29564e-05 -8.96649e-06 -3.08224e-06 5.57023e-08 6.95903e-08 2.21516e-08 2.94248e-07 2.4583e-07 2.91844e-06 0.0005 
1951 1 -0.000908061 -0.0133192 0.00130867 -5.10794e-05 -9.62955e-06 9.04669e-06 -2.77224e-08 4.71089e-08 1.57029e-08 3.57726e-07 2.27499e-07 2.49944e-06 0.0005 
1971 1 -0.000137986 -0.0126724 0.00125623 -9.24968e-05 -5.16167e-05 5.41537e-05 9.09786e-08 3.22192e-07 -5.18295e-09 1.41097e-07 -1.36931e-07 2.17504e-06 0.0005 
2416 1 -0.000184217 -0.0133488 0.00199769 -3.86989e-05 -6.71872e-06 3.92331e-06 -7.02226e-08 8.55476e-09 1.31514e-08 1.93029e-07 2.1886e-08 3.1601e-06 0.0005 
2017 1 -0.00570766 -0.0119645 0.00126926 -3.61211e-05 -5.8686e-06 2.56806e-05 -9.18385e-08 4.84182e-08 1.19766e-07 -2.12953e-07 3.21038e-08 2.48357e-06 0.0005 
527 1 -0.00436057 -0.0126179 0.00168567 -4.3651e-05 -2.7977e-06 -1.30431e-05 -5.9477e-08 -6.65494e-08 -7.03837e-08 -4.98206e-08 6.50127e-08 2.89056e-06 0.0005 
2327 1 -0.00336336 -0.0120737 0.00147647 -8.22096e-05 2.13036e-05 2.43598e-05 3.71866e-08 5.13076e-08 8.2068e-08 9.57782e-08 1.52927e-07 2.63504e-06 0.0005 
886 1 -0.0023836 -0.0122686 0.00143562 -8.10995e-05 -1.29876e-05 1.88209e-05 1.07581e-07 9.83168e-08 6.84547e-09 2.33824e-07 2.79917e-07 2.45337e-06 0.0005 
848 1 -0.00141843 -0.0124608 0.00126 -5.79448e-05 3.0278e-06 6.95508e-06 1.32121e-07 2.03431e-07 -3.60461e-08 3.77508e-07 4.17601e-07 2.3968e-06 0.0005 
125 1 -0.000675833 -0.0119409 0.00168135 -5.7255e-05 4.67409e-05 8.15405e-05 1.98345e-07 1.60514e-07 3.19482e-07 2.00793e-07 1.49468e-07 2.72111e-06 0.0005 
2456 1 -0.00683586 -0.0114672 0.00140236 7.02446e-06 2.00028e-05 1.11438e-05 -1.16927e-07 2.27148e-08 2.96726e-08 -2.50175e-07 4.42367e-08 2.57576e-06 0.0005 
461 1 -0.00539955 -0.0112592 0.00190757 -5.40727e-05 -3.5666e-05 1.60329e-05 1.22152e-08 -3.16571e-08 1.42137e-07 -9.94838e-08 5.84915e-08 3.20101e-06 0.0005 
2263 1 -0.00447768 -0.0116457 0.00188788 -3.59986e-05 -1.27958e-05 -5.04759e-05 7.98825e-07 -2.15351e-07 -5.72905e-06 -4.52953e-10 9.29604e-08 3.13578e-06 0.0005 