ITEM: TIMESTEP
10000
ITEM: NUMBER OF ATOMS
10000
ITEM: BOX BOUNDS mm mm mm
-0.015 0.015
-0.015 0.015
-0.001 0.0554
ITEM: ATOMS id type x y z vx vy vz fx fy fz f_dragforce[1] f_dragforce[2] f_dragforce[3] radius 
1359 1 -0.00148737 -0.0132663 0.000499771 -8.85086e-07 3.24749e-05 -7.40343e-16 -3.3953e-24 -2.29274e-22 0 0 0 0 0.0005 
2191 1 -6.53189e-05 -0.0133391 0.000499771 -0.00123735 0.000444759 5.8854e-16 -7.31545e-21 1.84134e-21 0 0 0 0 0.0005 
637 1 -0.00304814 -0.0122428 0.000497377 1.23777e-05 5.33027e-07 -2.88886e-06 1.6361e-08 -2.51553e-08 -2.0319e-08 0 0 0 0.0005 
1496 1 -0.00207201 -0.0124547 0.000497166 1.98383e-06 -1.2197e-05 -8.46451e-06 5.19463e-08 -4.90047e-08 -3.50942e-08 0 0 0 0.0005 
502 1 -0.00077354 -0.0125214 0.000496916 -1.84901e-06 -9.56711e-06 -9.69886e-06 5.18354e-08 -4.78118e-08 -3.14992e-08 0 0 0 0.0005 
1195 1 -0.00705803 -0.0110975 0.000498611 1.02231e-05 7.95642e-06 -1.76849e-06 -1.01861e-08 -9.44228e-08 -2.07787e-08 0 0 0 0.0005 
1356 1 -0.00631332 -0.0117635 0.000499177 -5.1272e-07 -4.61318e-06 -1.3252e-06 3.76964e-08 -1.81597e-08 -1.45059e-08 0 0 0 0.0005 
939 1 -0.0051509 -0.0116627 0.000499275 9.87739e-06 2.53718e-05 1.98857e-05 -2.09353e-09 -4.07809e-08 -8.8682e-09 0 0 0 0.0005 
1758 1 -0.00415017 -0.0116722 0.000499771 -0.000109505 -0.000145909 -4.72708e-15 3.18544e-22 -2.27882e-22 0 0 0 0 0.0005 
656 1 -0.00321824 -0.0112603 0.000497794 6.98853e-06 3.05224e-06 -6.33409e-06 -2.69212e-08 -3.93994e-08 -2.59104e-08 0 0 0 0.0005 
758 1 -0.00220802 -0.0114651 0.000498126 1.87528e-05 2.58445e-06 -1.98381e-06 -3.77883e-08 -7.87355e-08 -2.95267e-09 0 0 0 0.0005 
319 1 -0.00111248 -0.0115709 0.00049972 -0.00011944 6.45162e-05 2.33689e-07 -1.37411e-07 -1.80052e-07 -3.99909e-08 0 0 0 0.0005 
511 1 -1.62801e-05 -0.0111194 0.000495553 1.6772e-05 6.86212e-05 1.68167e-05 -2.20147e-08 -9.83115e-08 -5.71665e-08 0 0 0 0.0005 
1144 1 -0.00800316 -0.0106568 0.000499107 -1.033e-05 -8.82195e-07 -1.72453e-06 5.13903e-08 -7.97554e-08 -1.89711e-08 0 0 0 0.0005 
353 1 -0.00578849 -0.0108932 0.00049931 3.04151e-05 4.69763e-05 -3.46461e-06 8.69318e-08 1.0744e-07 -7.85921e-08 0 0 0 0.0005 
1818 1 -0.00393636 -0.0105684 0.000496981 -2.54609e-05 -3.04379e-05 1.09719e-05 7.20645e-08 7.42661e-08 -1.53984e-08 0 0 0 0.0005 
1873 1 -0.00258545 -0.0104898 0.000498932 1.57606e-05 -1.38946e-05 -2.53193e-05 -5.81817e-08 -2.3771e-08 -1.07074e-08 0 0 0 0.0005 
2211 1 -0.000756328 -0.0104483 0.000497805 -1.87877e-05 1.97887e-05 -6.69702e-06 -6.93485e-08 -1.68026e-07 -2.51859e-09 0 0 0 0.0005 
647 1 -0.00884555 -0.0100004 0.000498934 -6.14764e-06 3.83193e-06 4.84971e-06 5.88371e-08 -4.70982e-08 1.62828e-08 0 0 0 0.0005 
542 1 -0.00733012 -0.00991775 0.000498227 -4.47186e-06 -1.2193e-06 7.06955e-06 4.66485e-08 -8.42015e-08 -1.78458e-08 0 0 0 0.0005 
1585 1 -0.00535252 -0.00995241 0.000497627 -1.72993e-05 -1.35044e-05 -1.38464e-06 4.05448e-08 5.96027e-08 6.35955e-09 0 0 0 0.0005 
2142 1 -0.00326052 -0.009755 0.000498198 3.0471e-05 1.34877e-05 1.7198e-05 -1.30306e-07 -1.20363e-07 -2.04033e-08 0 0 0 0.0005 
2330 1 -0.00886808 -0.00899291 0.000495832 1.15584e-05 2.26709e-06 1.56018e-06 3.39898e-08 -6.6588e-08 -4.89824e-08 0 0 0 0.0005 
733 1 -0.00681216 -0.00906289 0.000498114 1.66972e-05 -1.34372e-05 6.21119e-06 8.06816e-08 -1.37771e-07 5.18987e-09 0 0 0 0.0005 
1443 1 -0.00575894 -0.00889945 0.000498092 -5.67426e-06 -6.3217e-06 7.67568e-06 3.08542e-08 -5.70568e-08 -3.54349e-09 0 0 0 0.0005 
1221 1 -0.00476047 -0.00887452 0.000498133 -1.6726e-06 4.83874e-06 1.1505e-05 -4.14991e-08 1.58137e-08 -4.34445e-09 0 0 0 0.0005 
388 1 -0.00322101 -0.008752 0.000499734 -5.39172e-06 3.97388e-05 -1.41987e-05 7.98887e-08 1.31906e-07 1.43013e-07 0 0 0 0.0005 
823 1 -0.00236949 -0.00927614 0.000499589 -0.000103608 9.93327e-07 3.99035e-05 1.57922e-07 4.58558e-09 6.04122e-08 0 0 0 0.0005 
714 1 -0.00108404 -0.00881346 0.000497309 1.02178e-05 -2.72047e-05 1.01264e-05 -4.98026e-08 -8.15989e-08 -3.0553e-08 0 0 0 0.0005 
462 1 -8.67857e-05 -0.00886904 0.000497203 -1.53269e-06 1.74684e-05 7.81795e-06 -4.16906e-08 -9.61391e-08 -3.23726e-09 0 0 0 0.0005 
529 1 -0.0102057 -0.00860769 0.000499777 8.98229e-06 -7.226e-06 4.53208e-06 2.68676e-08 -4.01292e-08 -2.50865e-09 0 0 0 0.0005 
359 1 -0.00933817 -0.00811274 0.000497902 1.41613e-05 -1.01678e-05 5.00212e-06 1.57172e-08 -4.94719e-08 1.06449e-08 0 0 0 0.0005 
1505 1 -0.00808578 -0.00836663 0.000499628 0.000152235 -3.38425e-05 -2.7404e-05 5.48997e-07 1.2987e-09 -7.85788e-08 0 0 0 0.0005 
2252 1 -0.00613599 -0.00797408 0.000499222 -1.50275e-05 -2.47535e-07 1.21679e-05 -3.98473e-08 -1.29542e-07 1.90838e-08 0 0 0 0.0005 
2042 1 -0.00234142 -0.00827634 0.000499722 3.74718e-05 3.60035e-05 -1.03183e-05 -1.52441e-09 7.46757e-09 1.92034e-08 0 0 0 0.0005 
1539 1 -0.010836 -0.0078012 0.000497405 1.15917e-05 -9.95503e-06 -1.09496e-05 1.54875e-08 -9.61239e-09 -6.36799e-09 0 0 0 0.0005 
986 1 -0.00812739 -0.00736777 0.000499538 -3.92915e-05 -2.36047e-05 -1.19628e-07 3.68539e-07 4.07073e-09 -6.87015e-08 0 0 0 0.0005 
1847 1 -0.00709766 -0.00770349 0.000497604 -8.70718e-06 1.44532e-05 -2.57114e-06 -9.52048e-09 -1.34492e-07 -2.15327e-08 0 0 0 0.0005 
1447 1 -0.00561177 -0.0071195 0.000499145 3.51708e-05 -1.02521e-05 9.33873e-07 1.62286e-08 -1.29975e-07 -2.4383e-08 0 0 0 0.0005 
1848 1 -0.00461892 -0.00724258 0.000497214 -1.04603e-05 1.8914e-06 3.70884e-06 4.68414e-08 -1.45411e-07 8.4994e-09 0 0 0 0.0005 
2417 1 -0.00359504 -0.00736354 0.000498369 -5.40812e-07 -2.60817e-05 3.13676e-06 -4.58868e-09 1.13541e-08 -1.41426e-08 0 0 0 0.0005 
1462 1 -0.00259829 -0.00730986 0.000497344 -4.20552e-06 -3.35031e-05 3.94161e-06 3.8447e-08 -1.88738e-07 -3.2019e-09 0 0 0 0.0005 
46 1 -0.00132345 -0.00784342 0.000499797 4.33116e-05 -1.22455e-05 2.05487e-05 -2.30609e-07 -1.70264e-07 8.63346e-08 0 0 0 0.0005 
1432 1 -0.00018232 -0.00787479 0.000498626 -2.07327e-05 1.1503e-05 -9.51961e-06 8.17262e-08 -4.42805e-08 3.11927e-08 0 0 0 0.0005 
2195 1 -0.0116015 -0.00660569 0.000497847 -5.78815e-06 -2.33974e-06 -4.06946e-06 1.69377e-08 1.49302e-08 -1.42268e-08 0 0 0 0.0005 
1429 1 -0.0105985 -0.00682904 0.000499771 -0.000119279 0.000265091 1.86712e-09 -8.05163e-17 1.78908e-16 8.72215e-11 0 0 0 0.0005 
551 1 -0.00960236 -0.00692842 0.000496871 1.57587e-05 -1.82028e-05 -3.44045e-06 1.57285e-08 -2.5617e-08 -6.20483e-08 0 0 0 0.0005 
1263 1 -0.00878876 -0.00633168 0.000499771 -0.000146793 0.000324841 -5.24298e-13 3.08634e-20 -6.81296e-20 -1.09798e-14 0 0 0 0.0005 
490 1 -0.00778801 -0.00635142 0.000497955 -2.33024e-06 -3.49678e-05 -6.87281e-06 3.09888e-08 -3.49251e-08 1.98477e-08 0 0 0 0.0005 
1485 1 -0.00646906 -0.00656605 0.000498868 -5.61425e-07 -4.93618e-06 1.32583e-05 2.612e-08 -9.88267e-08 -2.55638e-09 0 0 0 0.0005 
74 1 -0.00405134 -0.00639926 0.00049936 1.0572e-06 -2.70905e-05 -2.20035e-08 5.37227e-08 -9.27557e-08 -2.77412e-08 0 0 0 0.0005 
606 1 -0.0109849 -0.00581928 0.00049971 -1.58388e-06 2.54113e-07 1.89239e-07 3.70098e-08 2.36188e-09 6.19062e-10 0 0 0 0.0005 
1293 1 -0.0100028 -0.00600409 0.00049792 5.37047e-06 -2.07643e-05 -2.27706e-06 6.03618e-08 3.43368e-10 -4.35754e-08 0 0 0 0.0005 
1248 1 -0.00701924 -0.00571313 0.000498626 1.12343e-05 -4.55399e-05 -2.7306e-06 8.77849e-08 -9.20179e-08 -2.64314e-09 0 0 0 0.0005 
1101 1 -0.00560542 -0.00601507 0.000497059 1.09148e-05 -3.34157e-05 -7.13149e-06 7.10778e-08 -1.48527e-07 9.1464e-09 0 0 0 0.0005 
817 1 -0.00467735 -0.00562045 0.000498134 -1.61446e-06 -1.71983e-05 -4.84631e-06 2.52533e-08 -1.55747e-07 2.21992e-08 0 0 0 0.0005 
1969 1 -0.00335405 -0.00559145 0.000497496 -4.79719e-06 -2.92879e-05 -5.40679e-06 7.5158e-08 -1.07019e-07 -1.55525e-08 0 0 0 0.0005 
266 1 -0.00225519 -0.00609342 0.000496755 -5.01724e-06 -3.36141e-05 -8.32377e-06 6.04549e-08 -1.26514e-07 2.20916e-09 0 0 0 0.0005 
1477 1 -0.000921545 -0.00627072 0.000496981 -5.4232e-06 -1.62756e-05 -7.70156e-06 8.88964e-08 -1.1565e-07 2.22276e-09 0 0 0 0.0005 
740 1 -8.97606e-05 -0.00559241 0.000498449 -1.99023e-05 5.07091e-06 -2.26575e-05 1.42961e-07 -7.66471e-08 -1.1002e-09 0 0 0 0.0005 
1091 1 -0.0121737 -0.00548408 0.000497514 -9.45914e-07 -2.78723e-06 -1.44284e-06 -6.87498e-09 -7.03227e-09 -1.63587e-09 0 0 0 0.0005 
900 1 -0.0113662 -0.00489537 0.000499459 -3.8141e-06 -3.01675e-06 -8.60366e-06 -1.71366e-09 9.35412e-09 1.30395e-08 0 0 0 0.0005 
1315 1 -0.01031 -0.00484004 0.00049676 9.8158e-06 -1.13221e-05 -8.37477e-06 -7.29918e-08 7.15708e-08 -1.4445e-08 0 0 0 0.0005 
53 1 -0.00868213 -0.00528424 0.000496669 1.49482e-05 -2.23871e-05 -8.76349e-06 6.49336e-08 -3.78034e-09 -1.67558e-08 0 0 0 0.0005 
1403 1 -0.00564725 -0.00494902 0.000499132 1.74126e-05 -1.47288e-05 -1.03531e-05 -4.12677e-08 -1.21431e-07 -8.76318e-09 0 0 0 0.0005 
2181 1 -0.00394843 -0.00478912 0.000497851 -6.56477e-06 -1.28162e-05 -1.41821e-06 1.10521e-07 -6.7019e-08 4.71846e-08 0 0 0 0.0005 
152 1 -0.00257455 -0.00496756 0.00049957 -1.10513e-06 -1.07687e-05 1.88654e-06 4.93762e-08 -7.03363e-08 -3.05655e-08 0 0 0 0.0005 
262 1 -0.000969753 -0.00511598 0.000499136 -1.19302e-06 -1.58691e-05 -8.71874e-07 1.3407e-07 -1.20659e-07 -2.50264e-08 0 0 0 0.0005 
890 1 -0.0125489 -0.00455806 0.000498871 -2.15354e-06 -3.6587e-06 7.97944e-07 1.27454e-08 -1.27867e-09 1.70522e-08 0 0 0 0.0005 
2 1 -0.010893 -0.00401495 0.000499421 -9.02035e-06 -6.00637e-06 -1.27978e-05 1.77537e-08 7.11974e-09 -7.37029e-09 0 0 0 0.0005 
12 1 -0.00939889 -0.00442997 0.000499283 1.59986e-05 -3.20372e-05 2.30769e-06 -2.40231e-08 -6.34977e-08 3.61587e-08 0 0 0 0.0005 
1415 1 -0.00839913 -0.00432697 0.000497943 3.91814e-05 -3.95759e-05 -3.60664e-06 4.33908e-08 -3.83134e-08 2.81352e-08 0 0 0 0.0005 
93 1 -0.00729005 -0.0046318 0.000498846 3.31804e-05 -2.73876e-05 -1.40885e-05 -5.73371e-08 -6.87271e-08 7.59975e-09 0 0 0 0.0005 
2064 1 -0.00595765 -0.00399987 0.000496363 2.55413e-05 -3.52954e-05 -1.55452e-05 -9.60023e-08 -1.18771e-07 5.38557e-09 0 0 0 0.0005 
1452 1 -0.00495676 -0.00399879 0.000498527 -9.56154e-05 -7.35504e-07 -6.01031e-06 9.80577e-08 -1.52261e-07 7.26538e-09 0 0 0 0.0005 
1459 1 -0.00316907 -0.00416469 0.000497092 -7.35516e-06 -1.52269e-05 -7.01181e-06 1.04678e-07 -7.94498e-08 2.02158e-08 0 0 0 0.0005 
1507 1 -0.00173652 -0.00442416 0.000499798 -2.58268e-07 1.79789e-08 2.00909e-06 4.02004e-08 -1.00647e-07 -1.38125e-08 0 0 0 0.0005 
2217 1 -0.000780701 -0.00413439 0.000497673 2.28412e-06 2.12628e-05 -1.41456e-05 1.75286e-08 -8.09683e-08 3.99771e-08 0 0 0 0.0005 
982 1 -0.0128875 -0.00348578 0.000497811 -5.30019e-06 4.89279e-06 -4.28902e-08 5.69225e-08 -8.08154e-08 -3.19825e-09 0 0 0 0.0005 
1544 1 -0.0100065 -0.00355044 0.000499771 1.08447e-06 0.000111715 -4.72737e-15 -8.12376e-24 -4.43273e-22 0 0 0 0 0.0005 
2007 1 -0.00898753 -0.0035193 0.000499963 4.50873e-05 -5.80255e-05 -1.34738e-05 -5.41632e-08 2.74739e-07 -2.18968e-09 0 0 0 0.0005 
1617 1 -0.00781989 -0.00351257 0.000497969 3.35455e-05 -5.64203e-05 -1.60162e-05 -4.64351e-08 7.19652e-08 1.69438e-08 0 0 0 0.0005 
230 1 -0.00403869 -0.00359661 0.000497516 -2.49115e-05 -6.52718e-05 -6.68071e-06 8.85075e-08 -9.91478e-08 -4.13086e-09 0 0 0 0.0005 
1067 1 -0.00238623 -0.00354277 0.000497335 -1.54874e-05 -1.07697e-05 2.73099e-06 6.14962e-08 -2.29648e-08 -2.013e-10 0 0 0 0.0005 
9 1 -0.0130614 -0.00247868 0.000499198 -1.86722e-05 2.86351e-05 -8.98153e-07 6.43415e-08 -7.52036e-08 1.80469e-08 0 0 0 0.0005 
2406 1 -0.0116636 -0.00306571 0.000497287 -1.14545e-05 -8.36653e-06 6.39606e-07 2.69073e-08 3.07703e-09 1.51227e-08 0 0 0 0.0005 
178 1 -0.00952906 -0.00267067 0.000499771 0.000139915 -3.11711e-05 -1.6458e-07 -2.59662e-08 -3.54818e-08 -6.8356e-10 0 0 0 0.0005 
1238 1 -0.00852916 -0.00263173 0.000498188 2.14099e-05 -5.6193e-05 -2.38088e-05 -4.55917e-08 5.18919e-08 -7.28979e-10 0 0 0 0.0005 
1610 1 -0.00705454 -0.00272508 0.000499771 -0.000454471 -0.000302833 1.91715e-15 1.86595e-21 -8.21214e-22 0 0 0 0 0.0005 
391 1 -0.00605912 -0.00288385 0.000498659 7.22921e-05 -4.33359e-05 -6.83931e-06 1.46881e-07 -5.83819e-08 6.77458e-08 0 0 0 0.0005 
1178 1 -0.00506374 -0.00300429 0.000499771 9.47557e-05 -5.09926e-05 4.14688e-14 1.62791e-21 -8.05824e-22 1.25503e-16 0 0 0 0.0005 
1798 1 -0.00414338 -0.00258971 0.000499771 0.000250913 6.78217e-05 1.91743e-15 8.98265e-23 4.118e-22 0 0 0 0 0.0005 
619 1 -0.00323073 -0.00300757 0.000499625 -1.57647e-05 -1.63976e-05 1.45578e-05 2.98926e-08 -3.04675e-08 6.70317e-09 0 0 0 0.0005 
38 1 -0.0021114 -0.00250023 0.000499051 3.05993e-06 -3.71695e-05 -1.67167e-05 3.51067e-08 -1.02544e-07 -1.97857e-08 0 0 0 0.0005 
736 1 -0.000790152 -0.00295787 0.000499648 9.59582e-06 -1.99067e-05 -1.48894e-05 1.61036e-08 -1.68697e-08 3.639e-08 0 0 0 0.0005 
186 1 -0.0124294 -0.00170429 0.000497855 3.43295e-06 -4.61014e-06 -7.66588e-06 2.64564e-08 -2.85584e-08 3.57226e-08 0 0 0 0.0005 
459 1 -0.0114539 -0.00208931 0.00049907 -1.16212e-05 -8.95027e-06 5.47684e-06 5.89684e-08 -2.51891e-08 2.44744e-08 0 0 0 0.0005 
866 1 -0.0104738 -0.00233174 0.000499277 -7.34042e-06 -1.29705e-05 -1.08179e-05 3.51127e-08 -5.08169e-09 4.35206e-08 0 0 0 0.0005 
1411 1 -0.00937868 -0.00168205 0.000498214 1.52569e-05 -4.01449e-05 -2.68651e-05 -5.11969e-08 -2.29758e-09 1.20298e-07 0 0 0 0.0005 
1278 1 -0.00775287 -0.00200291 0.000499036 9.36988e-06 -2.69817e-05 -2.82138e-07 -5.36464e-08 8.37336e-08 3.33693e-08 0 0 0 0.0005 
62 1 -0.00604673 -0.00187894 0.000499771 -8.60673e-06 -0.000170658 -1.95514e-15 -5.79461e-23 -9.33209e-22 -7.9079e-18 0 0 0 0.0005 
1669 1 -0.00496561 -0.00200854 0.000499771 4.18722e-05 4.3154e-05 -4.05048e-14 -7.8717e-22 -7.92675e-22 -1.24336e-16 0 0 0 0.0005 
695 1 -0.00125754 -0.0019802 0.000498459 4.06745e-06 -3.04399e-05 -1.17204e-05 7.78394e-09 -5.39566e-08 7.87443e-09 0 0 0 0.0005 
1530 1 -0.013293 -0.00120276 0.000499367 -8.63407e-06 -1.52147e-05 -1.40116e-06 -3.24351e-09 -3.17057e-08 1.89209e-08 0 0 0 0.0005 
1654 1 -0.0107162 -0.00136271 0.000498373 2.74874e-06 -1.42955e-05 9.71122e-07 9.07529e-08 -5.63897e-08 6.82316e-08 0 0 0 0.0005 
299 1 -0.00770249 -0.00100182 0.000499771 0.000308033 -0.000203804 4.57555e-15 2.08586e-21 -9.22557e-22 0 0 0 0 0.0005 
98 1 -0.00667991 -0.00106225 0.000497877 3.33102e-05 -4.47899e-05 -2.88379e-05 -2.37879e-08 3.5313e-08 7.16401e-08 0 0 0 0.0005 
1060 1 -0.00391652 -0.00157361 0.000497334 -4.43052e-05 -6.28784e-05 -6.70815e-06 -9.41703e-08 -1.23422e-07 -1.81229e-08 0 0 0 0.0005 
781 1 -0.00214105 -0.00129723 0.000499771 0.000557942 -0.000852369 4.57557e-15 -3.67842e-21 -3.66555e-21 0 0 0 0 0.0005 
1955 1 -0.000349525 -0.00148604 0.000498492 2.28384e-05 -7.10971e-06 -3.67036e-06 4.95921e-08 1.79588e-08 -1.98326e-08 0 0 0 0.0005 
1675 1 -0.0124416 -0.000619873 0.00049892 7.00859e-06 -8.71391e-06 -1.37356e-05 2.83073e-08 -2.02767e-08 -1.72539e-08 0 0 0 0.0005 
2125 1 -0.0115116 -0.000118959 0.000496928 2.73691e-07 -7.3874e-06 -3.76619e-06 3.16801e-08 -1.04469e-08 3.32315e-08 0 0 0 0.0005 
2169 1 -0.00953593 -0.000695181 0.000498802 1.47468e-05 -3.62713e-05 -5.55146e-06 -1.44815e-09 -2.83865e-08 8.82868e-08 0 0 0 0.0005 
6577 1 -0.0085943 -0.000363421 0.000497016 1.88428e-05 -5.95255e-05 -1.51808e-05 3.86327e-10 -1.04904e-07 8.28784e-08 0 0 0 0.0005 
6638 1 -0.00684282 -7.74371e-05 0.000497926 3.30814e-05 -4.86105e-05 3.23589e-06 -2.84701e-08 3.47951e-08 2.2855e-08 0 0 0 0.0005 
1600 1 -0.00577257 -0.000645366 0.00049727 2.23365e-05 -7.53871e-05 -2.74152e-05 7.01808e-09 8.19211e-08 4.52671e-08 0 0 0 0.0005 
108 1 -0.00326579 -0.000749502 0.000497067 -1.84114e-05 -4.24959e-05 -1.8377e-05 3.47944e-09 -2.08876e-08 3.53759e-08 0 0 0 0.0005 
288 1 -0.00178606 -0.000344172 0.000498325 -1.71755e-05 -4.49222e-05 -1.21033e-05 3.00648e-08 -3.34946e-09 8.62595e-09 0 0 0 0.0005 
1934 1 -0.000393805 -0.000487061 0.00049918 -4.72266e-06 -2.31894e-05 -1.63384e-05 -2.80655e-08 3.42061e-08 -2.0072e-08 0 0 0 0.0005 
1180 1 -0.0037421 -0.0128171 0.00092579 -6.82204e-06 7.95846e-06 -9.82191e-06 2.03812e-08 -2.52335e-08 -4.92152e-08 0 0 0 0.0005 
1047 1 -0.00271702 -0.0130748 0.000936094 6.2614e-07 -7.46011e-06 -1.0133e-05 4.02013e-08 -1.89431e-08 -2.75957e-08 0 0 0 0.0005 
1971 1 -0.000135306 -0.0126763 0.00124753 4.2123e-05 2.76801e-05 -5.38573e-05 4.21778e-08 -5.45364e-08 -3.81543e-08 0 0 0 0.0005 
2053 1 -0.00467509 -0.0125049 0.000750191 -2.73718e-05 -5.3988e-06 5.54316e-06 3.37299e-08 -2.09669e-08 -7.32596e-08 0 0 0 0.0005 
848 1 -0.00142135 -0.012467 0.00125221 6.15272e-06 -1.33628e-05 -1.38633e-05 7.9716e-08 -8.99699e-08 -3.35732e-08 0 0 0 0.0005 
427 1 -0.00477504 -0.0110343 0.00117992 2.88186e-05 -3.04995e-05 8.81857e-06 4.87733e-08 -5.53571e-08 9.45951e-09 0 0 0 0.0005 
2081 1 -0.00166552 -0.0106911 0.000828405 -1.10819e-05 -3.61526e-05 -3.28002e-05 -9.19182e-08 -1.15735e-07 -1.09749e-07 0 0 0 0.0005 
1375 1 -0.00811346 -0.00947668 0.000930544 -1.36226e-06 -7.47746e-06 1.25316e-05 7.3773e-08 -4.13952e-09 -5.08541e-08 0 0 0 0.0005 
1658 1 -0.00634366 -0.0100632 0.000540091 -1.25197e-05 1.13333e-05 -1.14718e-05 5.37953e-08 9.69218e-08 -5.34044e-08 0 0 0 0.0005 
110 1 -0.00455727 -0.0100628 0.00108811 -3.39427e-05 -2.12273e-05 1.42935e-05 1.92704e-08 -5.31919e-08 1.87162e-08 0 0 0 0.0005 
1487 1 -0.00223848 -0.00992769 0.00124629 4.24686e-05 -6.75473e-05 -1.22363e-05 -1.15258e-07 -1.67559e-07 7.47085e-08 0 0 0 0.0005 
2090 1 -0.00143887 -0.00973424 0.000652529 -4.62643e-05 -2.57847e-05 -5.13851e-05 9.58865e-08 -1.18661e-07 2.20565e-08 0 0 0 0.0005 
2461 1 -0.00958907 -0.00929246 0.00111329 7.75745e-06 1.76759e-06 1.26538e-05 2.37681e-08 -4.62563e-08 -2.16561e-08 0 0 0 0.0005 
1750 1 -0.00397672 -0.00925761 0.000984041 -1.37842e-05 -3.4241e-05 2.10071e-05 -3.59261e-08 -2.17397e-09 -2.52522e-08 0 0 0 0.0005 
243 1 -0.00695255 -0.00838884 0.00122256 2.00167e-06 2.50479e-07 -6.54486e-06 -1.00048e-08 -2.30807e-07 5.89966e-08 0 0 0 0.0005 
948 1 -0.0051805 -0.00801569 0.000788093 -1.13588e-05 2.32835e-06 9.16948e-06 -3.14853e-08 -1.09014e-07 -1.09253e-07 0 0 0 0.0005 
793 1 -0.00403812 -0.00822675 0.00073678 1.56725e-05 -2.47574e-05 -3.50868e-06 -3.39052e-07 1.9289e-07 -5.11904e-09 0 0 0 0.0005 
1694 1 -0.0017053 -0.00853445 0.00122666 1.31073e-05 -9.84054e-06 1.01795e-05 -1.22657e-07 -2.67877e-07 2.67699e-10 0 0 0 0.0005 
842 1 -0.0100233 -0.00764412 0.00105085 2.55188e-06 -1.43226e-05 -1.36303e-05 4.19981e-08 -7.73543e-09 -4.59877e-08 0 0 0 0.0005 
239 1 -0.00901327 -0.00741692 0.00113753 1.65652e-05 -2.03525e-06 6.54221e-06 1.6574e-07 3.37782e-08 -1.47707e-07 0 0 0 0.0005 
13 1 -0.00305596 -0.00787188 0.00118271 -4.9923e-06 -5.73216e-05 6.86861e-06 2.00891e-07 -2.26823e-07 1.12827e-07 0 0 0 0.0005 
1059 1 -0.00717639 -0.00674339 0.00118142 -1.07389e-05 -6.43897e-06 2.30347e-05 4.27746e-08 -1.67728e-07 -1.54337e-08 0 0 0 0.0005 
830 1 -0.00488456 -0.0064281 0.00104874 -4.81901e-07 -2.63519e-05 -2.71923e-07 7.70164e-08 -2.51806e-07 -4.6163e-08 0 0 0 0.0005 
515 1 -0.00310734 -0.00650824 0.000805454 -4.16329e-07 -4.36066e-05 -3.62759e-06 4.71342e-08 -1.62716e-07 5.34133e-08 0 0 0 0.0005 
2336 1 -0.00168407 -0.00691252 0.000541554 2.7758e-06 -3.08337e-05 6.56537e-07 4.74324e-08 -1.04437e-07 3.13052e-08 0 0 0 0.0005 
2421 1 -0.00053867 -0.00706865 0.000967721 3.64449e-05 1.48029e-05 1.87377e-05 3.79644e-12 -1.73815e-08 -1.05733e-07 0 0 0 0.0005 
1645 1 -0.00625451 -0.00560265 0.00113082 1.48731e-05 -5.01667e-05 -1.75811e-05 7.61843e-08 -1.70465e-07 -2.01331e-08 0 0 0 0.0005 
100 1 -0.00401354 -0.00569498 0.00123987 -1.07468e-05 -4.38759e-05 -9.38637e-06 1.02883e-07 -2.5297e-07 3.27046e-08 0 0 0 0.0005 
2208 1 -0.00152722 -0.00571918 0.00106759 -9.79716e-06 -4.3783e-05 -1.0017e-05 9.16568e-08 -8.37264e-08 8.49624e-10 0 0 0 0.0005 
1899 1 -0.0103986 -0.00548009 0.00125498 1.65794e-05 -1.61966e-05 -3.29434e-05 -3.17106e-08 2.29047e-11 -9.97252e-08 0 0 0 0.0005 
220 1 -0.00940849 -0.00551933 0.00113552 1.67232e-05 -2.81917e-05 -5.55274e-06 2.27729e-08 8.26209e-09 -7.2368e-08 0 0 0 0.0005 
1211 1 -0.0078519 -0.00549484 0.0010067 1.63304e-05 -5.41659e-05 -7.97758e-06 5.3357e-08 -1.13128e-08 5.51333e-08 0 0 0 0.0005 
565 1 -0.00328605 -0.0048185 0.00124451 -5.98244e-06 -4.6481e-05 -1.6136e-05 1.81071e-07 -1.51632e-07 1.38472e-09 0 0 0 0.0005 
2300 1 -0.0118223 -0.00398037 0.000865844 -7.91141e-07 -8.45974e-06 -1.00112e-05 2.96385e-08 1.93645e-08 3.21855e-08 0 0 0 0.0005 
1986 1 -0.00647208 -0.00463045 0.00107298 2.43025e-05 -5.44361e-05 -2.9963e-05 -7.01899e-08 -1.60735e-07 -4.6128e-09 0 0 0 0.0005 
1236 1 -0.00459697 -0.00458581 0.00122792 -1.62494e-05 -7.38792e-05 1.26978e-05 1.24589e-07 -3.50514e-08 1.93103e-08 0 0 0 0.0005 
483 1 -0.00250177 -0.00419955 0.0012385 -1.51408e-05 -5.0168e-05 -2.47521e-05 1.66634e-07 -3.86761e-08 3.07938e-08 0 0 0 0.0005 
696 1 -0.00687716 -0.0037122 0.000762359 3.20159e-05 -5.46149e-05 -4.69011e-05 -6.54992e-08 8.31216e-08 -2.10997e-08 0 0 0 0.0005 
704 1 -0.00147818 -0.00355211 0.000915069 -7.47277e-06 1.54276e-05 -7.65444e-06 7.54124e-08 -1.45756e-07 5.42663e-08 0 0 0 0.0005 
2160 1 -7.61428e-05 -0.00356055 0.000910058 -7.5138e-06 4.60857e-05 -3.24225e-05 6.33182e-08 -1.6026e-07 5.75754e-08 0 0 0 0.0005 
532 1 -0.0107956 -0.00314488 0.00098125 1.0911e-05 -1.83071e-05 -1.88211e-05 6.56935e-09 -6.48699e-09 7.74241e-08 0 0 0 0.0005 
1201 1 -0.00783854 -0.00280346 0.0012003 3.64164e-05 -7.56236e-05 -4.12415e-05 -8.14145e-08 6.84503e-08 4.66221e-08 0 0 0 0.0005 
2224 1 -0.00855781 -0.00180258 0.00105503 2.20512e-06 -8.07483e-05 -1.97309e-05 -2.65831e-08 1.6198e-08 7.52765e-08 0 0 0 0.0005 
1596 1 -0.00697516 -0.00180614 0.00109348 5.08917e-05 -6.5962e-05 -5.26636e-05 1.77529e-08 -2.01248e-08 8.30387e-08 0 0 0 0.0005 
2261 1 -0.00298458 -0.00178099 0.000791505 -7.23899e-05 -0.000119017 -1.03376e-05 -1.11427e-07 -3.9068e-07 -8.40073e-08 0 0 0 0.0005 
78 1 -0.0116488 -0.00115315 0.000788061 9.03894e-06 -2.71429e-06 -2.71631e-05 2.41331e-08 -4.27722e-08 9.0549e-08 0 0 0 0.0005 
367 1 -0.0100639 -0.00113921 0.00122215 3.12452e-05 -6.87084e-05 -3.01729e-06 -3.36065e-08 -3.84998e-08 1.09839e-07 0 0 0 0.0005 
5 1 -0.00506852 -0.00114562 0.0009961 -1.71915e-05 -8.71453e-05 -8.12893e-06 -1.61647e-08 -1.07291e-07 -5.77285e-08 0 0 0 0.0005 
1357 1 -0.00117457 -0.00104975 0.00085224 3.01156e-05 -4.18326e-06 -1.20018e-05 5.1524e-08 -5.00137e-08 1.33491e-08 0 0 0 0.0005 
967 1 -0.0133498 -0.000207369 0.000558192 -4.06568e-06 -1.06945e-05 -3.48098e-06 5.47757e-09 -3.15389e-08 -2.05235e-08 0 0 0 0.0005 
2095 1 -0.0104804 -0.000402107 0.000633134 2.51693e-05 -1.88066e-05 -8.94806e-06 -5.76768e-09 -4.47189e-08 9.91378e-08 0 0 0 0.0005 
42 1 -0.0041859 -0.000693202 0.000883625 -2.49212e-05 -6.09333e-05 -7.86298e-06 1.55123e-08 -9.64466e-08 2.46432e-08 0 0 0 0.0005 
548 1 -0.00252579 -0.000550362 0.00113663 -1.9303e-05 -3.04492e-05 -1.88101e-05 1.30887e-08 -1.92185e-08 1.0692e-08 0 0 0 0.0005 
805 1 -0.00292446 -0.0130096 0.00190727 2.59264e-06 -1.7687e-05 -1.4812e-05 1.08447e-07 -3.37505e-09 -2.10197e-08 0 0 0 0.0005 
643 1 -0.00199089 -0.0132031 0.00161104 1.66906e-06 -2.8604e-06 2.45571e-07 6.8936e-08 -3.8252e-08 -3.02534e-08 0 0 0 0.0005 
1951 1 -0.000905432 -0.0133202 0.00131178 4.48939e-06 -7.49338e-06 3.90714e-05 6.65502e-08 -6.16563e-08 -1.31919e-07 0 0 0 0.0005 
2416 1 -0.000178765 -0.0133488 0.00199767 4.87794e-05 1.21993e-05 1.6173e-05 6.51354e-08 1.13954e-07 -1.4158e-07 0 0 0 0.0005 
2017 1 -0.00571097 -0.0119637 0.00127041 -3.30972e-05 5.17436e-05 3.89893e-05 4.43493e-09 2.00105e-08 2.96453e-08 0 0 0 0.0005 
527 1 -0.00435031 -0.0126221 0.00169385 -1.61107e-05 -3.77842e-06 -1.46544e-05 6.19757e-08 -7.34873e-08 2.10657e-08 0 0 0 0.0005 
2327 1 -0.00336443 -0.0120807 0.00148449 -1.92831e-06 1.36703e-06 -8.58778e-06 1.03503e-07 -7.61279e-08 -2.48331e-08 0 0 0 0.0005 
886 1 -0.00238582 -0.0122721 0.00142859 -8.9896e-07 -1.11502e-05 -2.07081e-05 8.43828e-08 -1.49994e-07 3.40882e-09 0 0 0 0.0005 
125 1 -0.00067714 -0.0119508 0.0016685 1.24304e-05 1.11495e-06 -1.99273e-05 7.15948e-08 -4.32273e-08 -1.28043e-07 0 0 0 0.0005 
2456 1 -0.00682978 -0.0114713 0.00139631 3.60829e-06 -3.41266e-08 -5.98477e-06 9.90771e-09 -7.32927e-08 -2.52907e-08 0 0 0 0.0005 
461 1 -0.00542661 -0.0112563 0.00192618 -3.37122e-05 -4.43755e-05 2.82198e-05 -1.99957e-08 -2.75857e-07 1.05012e-07 0 0 0 0.0005 
2263 1 -0.00451855 -0.0116716 0.00195102 -3.85975e-05 -3.58938e-05 3.88753e-05 -4.95237e-08 -2.51329e-07 3.03922e-07 0 0 0 0.0005 
1851 1 -0.00379724 -0.0111982 0.00130943 6.45334e-06 5.08325e-06 -7.06466e-06 9.36644e-08 -6.92951e-08 7.47979e-08 0 0 0 0.0005 
947 1 -0.00270547 -0.0113264 0.00135163 -4.55941e-06 -2.30773e-05 -1.19643e-05 -5.01951e-08 -4.32584e-08 -6.61018e-08 0 0 0 0.0005 
2112 1 -0.00172672 -0.0115247 0.00137319 -1.13203e-06 -1.74655e-05 -1.69316e-05 6.34225e-09 -1.28355e-07 -1.53219e-07 0 0 0 0.0005 
1780 1 -0.00843799 -0.0103459 0.00134298 4.18235e-06 -4.86141e-07 2.5488e-06 6.39567e-08 -1.00858e-07 -1.30374e-08 0 0 0 0.0005 
1463 1 -0.00775056 -0.0108734 0.00186913 9.79147e-06 -3.40298e-06 -1.01758e-05 -9.59747e-11 -6.28538e-08 -3.30601e-08 0 0 0 0.0005 
222 1 -0.00705242 -0.0104738 0.0012785 1.79794e-05 2.83936e-07 5.95943e-07 1.94692e-08 -1.85041e-07 -5.23633e-08 0 0 0 0.0005 
1898 1 -0.00609253 -0.0107005 0.0014314 1.14719e-05 -1.86359e-05 5.41841e-06 8.75839e-08 -2.81935e-07 -1.14987e-07 0 0 0 0.0005 
1837 1 -0.00408041 -0.0104317 0.00188311 -3.97374e-05 -2.24361e-05 4.43656e-06 8.50598e-08 1.13572e-08 1.01949e-08 0 0 0 0.0005 
339 1 -0.00321281 -0.0103879 0.00127066 7.40458e-05 -1.7825e-05 1.07264e-05 -1.62497e-07 -4.392e-08 -8.76831e-08 0 0 0 0.0005 
105 1 -0.00208411 -0.0107255 0.00185393 2.47979e-05 6.94214e-05 -0.000129004 1.55904e-08 -2.71201e-07 -1.3456e-08 0 0 0 0.0005 
1682 1 -0.000846127 -0.0110362 0.00130148 5.72246e-06 1.33844e-05 -4.78439e-06 -6.74709e-08 -2.09217e-07 -8.48515e-08 0 0 0 0.0005 
1594 1 -0.00658745 -0.00993337 0.00197827 1.92544e-05 -2.60114e-05 2.40669e-05 8.26005e-08 -2.76122e-07 -1.35134e-07 0 0 0 0.0005 
1725 1 -0.005265 -0.010251 0.00176448 -5.61507e-06 -2.69912e-05 4.35984e-05 4.63083e-08 -2.59026e-07 1.54481e-08 0 0 0 0.0005 
181 1 -0.00452618 -0.00953789 0.0019342 -2.05975e-05 -1.9094e-05 3.45178e-05 2.99755e-08 -1.64136e-07 7.5985e-08 0 0 0 0.0005 
96 1 -0.00132638 -0.0101255 0.00160145 5.49565e-05 4.80514e-05 -4.65263e-05 -3.89163e-08 -1.5112e-07 -9.1964e-09 0 0 0 0.0005 
2340 1 -0.000329892 -0.0101794 0.00158424 4.90973e-05 7.02127e-05 7.8471e-05 -1.44393e-08 -7.39395e-08 -7.23514e-08 0 0 0 0.0005 
1814 1 -0.00845508 -0.00936067 0.00186287 -1.37445e-05 0.000134724 8.18956e-06 1.03372e-08 1.82016e-08 -1.10037e-07 0 0 0 0.0005 
2135 1 -0.00721712 -0.00943007 0.0013647 6.16379e-06 -1.70069e-05 1.84951e-05 1.04675e-07 -1.70064e-07 -1.25236e-07 0 0 0 0.0005 
106 1 -0.00622951 -0.00933979 0.00125934 9.32628e-06 -2.90861e-05 1.45432e-05 9.61561e-08 -2.06191e-07 -4.81366e-08 0 0 0 0.0005 
2049 1 -0.00522955 -0.00931661 0.00126031 -1.22444e-05 1.96272e-05 3.12904e-05 5.53196e-08 -1.67607e-07 -3.57717e-09 0 0 0 0.0005 
2443 1 -0.00305169 -0.00936515 0.00139445 4.78662e-05 -0.000128065 0.000117165 -1.44469e-07 -2.17622e-07 5.7879e-08 0 0 0 0.0005 
1295 1 -0.001798 -0.00928853 0.00187364 -2.31794e-05 -4.12849e-06 6.44743e-06 -5.38672e-08 -2.13093e-07 4.89268e-08 0 0 0 0.0005 
1283 1 -0.000920963 -0.00919163 0.00140587 -4.69832e-06 -2.03335e-06 4.42725e-05 -3.91481e-08 -4.83212e-08 -4.84434e-08 0 0 0 0.0005 
1113 1 -0.0102042 -0.00860933 0.00149931 1.85887e-07 -1.98911e-06 5.3993e-06 2.19347e-08 -2.04488e-08 -3.20598e-09 0 0 0 0.0005 
2243 1 -0.00900535 -0.00850917 0.00135679 2.73751e-05 -1.65225e-05 9.03644e-06 1.02322e-07 -7.64283e-08 -7.28522e-08 0 0 0 0.0005 
1005 1 -0.00789845 -0.00864482 0.00144144 6.08941e-05 -3.18465e-06 -2.86841e-05 3.25181e-07 -6.26279e-08 -1.12372e-07 0 0 0 0.0005 
2185 1 -0.00589821 -0.00840378 0.00136993 -1.41443e-05 -2.73028e-05 7.39822e-06 2.54463e-09 -1.87821e-07 -1.81427e-08 0 0 0 0.0005 
630 1 -0.00465248 -0.00852652 0.00146635 -6.53602e-06 4.03101e-05 1.7179e-05 -3.30206e-07 1.05718e-07 1.859e-07 0 0 0 0.0005 
1206 1 -0.00363192 -0.00856361 0.00161268 -2.04533e-05 -5.01953e-05 2.96568e-05 6.49257e-08 -1.5281e-07 7.13681e-08 0 0 0 0.0005 
36 1 -0.00256585 -0.00856043 0.00173431 5.00347e-05 -0.000116247 7.31138e-05 -1.28046e-07 -2.12197e-07 3.6134e-09 0 0 0 0.0005 
951 1 -0.000326352 -0.00839227 0.0013407 -5.53886e-05 2.86988e-05 3.08216e-06 5.61884e-08 -8.08947e-08 1.84273e-08 0 0 0 0.0005 
2213 1 -0.0108029 -0.00784455 0.00172402 1.01189e-06 -2.17749e-06 -3.13729e-07 1.72209e-09 -1.75102e-08 -2.83979e-08 0 0 0 0.0005 
1726 1 -0.0084428 -0.00784076 0.00183832 3.61013e-06 -2.15238e-06 1.7884e-05 9.32854e-08 -5.98279e-08 -1.35081e-07 0 0 0 0.0005 
1620 1 -0.00759171 -0.00763249 0.00136056 -3.50834e-06 -6.09416e-06 1.58659e-06 6.1488e-08 -1.91136e-07 -4.47987e-08 0 0 0 0.0005 
678 1 -0.00652012 -0.00748976 0.00128451 -1.78926e-05 -1.69146e-06 2.62924e-05 5.70059e-09 -2.19019e-07 -6.35071e-09 0 0 0 0.0005 
652 1 -0.00555571 -0.00748169 0.00154515 -2.65245e-05 -3.48733e-05 3.50943e-05 6.48102e-09 -2.12384e-07 2.19206e-08 0 0 0 0.0005 
1173 1 -0.00458061 -0.00726803 0.00149278 -1.27246e-05 -3.75357e-05 7.32837e-06 4.59462e-08 -2.33656e-07 2.93653e-08 0 0 0 0.0005 
1836 1 -0.00277145 -0.00731322 0.00196092 8.73925e-06 -4.85652e-05 8.84459e-06 8.26916e-08 -1.93798e-07 5.61927e-08 0 0 0 0.0005 
1034 1 -0.00208746 -0.00761545 0.00129727 -1.94973e-06 -2.79409e-05 1.7067e-06 1.49841e-07 -1.57403e-07 -7.28584e-08 0 0 0 0.0005 
2413 1 -0.00112129 -0.00777024 0.00149902 -9.18779e-06 3.54066e-05 6.03476e-05 8.49357e-08 -3.48381e-07 1.9113e-08 0 0 0 0.0005 
745 1 -0.000206609 -0.00752195 0.00181427 2.67743e-05 3.89219e-05 5.06977e-07 6.58165e-09 -1.19638e-07 3.10442e-08 0 0 0 0.0005 
1583 1 -0.0113168 -0.00708499 0.00132852 -4.62024e-06 7.65484e-06 2.44079e-05 3.359e-08 -3.4249e-08 -3.87636e-08 0 0 0 0.0005 
715 1 -0.0106142 -0.00641019 0.00154564 6.1677e-06 2.80537e-06 -3.89736e-06 5.46113e-08 -2.43804e-08 -1.18456e-07 0 0 0 0.0005 
1265 1 -0.00967176 -0.00673337 0.00147184 -1.37509e-05 -4.06971e-05 -4.30989e-06 1.1521e-07 -4.58894e-09 -8.18714e-08 0 0 0 0.0005 