ITEM: TIMESTEP
75000
ITEM: NUMBER OF ATOMS
10000
ITEM: BOX BOUNDS mm mm mm
-0.015 0.015
-0.015 0.015
-0.001 0.0554
ITEM: ATOMS id type x y z vx vy vz fx fy fz f_dragforce[1] f_dragforce[2] f_dragforce[3] radius 
1359 1 -0.00149319 -0.0132657 0.00049969 3.9662e-05 6.49383e-06 -8.10399e-06 -8.96779e-08 -2.75382e-08 -3.59739e-08 2.5965e-07 1.25539e-07 1.73401e-06 0.0005 
637 1 -0.00304606 -0.0122388 0.000499378 4.1022e-05 -1.51418e-05 -8.25741e-06 -1.6679e-08 5.89145e-09 3.73823e-09 9.93578e-08 9.37005e-08 1.15268e-06 0.0005 
1496 1 -0.00206831 -0.0124477 0.000499737 3.16778e-05 2.94989e-05 -3.39335e-05 -1.56289e-08 8.13415e-08 3.88584e-08 2.35008e-07 1.56602e-07 1.22729e-06 0.0005 
502 1 -0.000772056 -0.0125196 0.000499466 3.25205e-05 5.96785e-05 -1.85314e-05 -5.25416e-09 3.27579e-08 6.22522e-09 2.62845e-07 1.18318e-07 1.11442e-06 0.0005 
1195 1 -0.00706596 -0.011105 0.000499557 -8.4448e-05 -7.25293e-05 -6.87949e-06 1.00815e-07 3.00725e-08 5.9748e-08 -3.12728e-07 7.40261e-09 1.45465e-06 0.0005 
1356 1 -0.00631326 -0.0117631 0.000499748 9.18427e-06 1.68901e-06 9.04675e-07 1.22826e-07 -6.48589e-08 -3.58401e-08 -2.31948e-07 6.98543e-08 1.62882e-06 0.0005 
939 1 -0.00514862 -0.0116575 0.000499602 1.34543e-05 -5.237e-05 -4.6583e-05 7.81354e-08 3.24071e-09 -1.05382e-07 -9.71105e-08 6.0499e-08 1.21139e-06 0.0005 
1758 1 -0.00414543 -0.0116575 0.000499691 0.000161369 -7.01184e-05 -1.34246e-05 1.74875e-07 1.25522e-07 7.97203e-09 2.55591e-08 7.23221e-08 1.06734e-06 0.0005 
656 1 -0.00322046 -0.0112547 0.000500435 -4.22634e-06 -9.65174e-06 -4.09576e-06 4.7029e-08 6.63648e-08 5.50855e-08 1.83308e-07 1.40072e-07 1.12581e-06 0.0005 
758 1 -0.00220712 -0.0114574 0.000499719 3.16751e-05 1.48778e-05 1.20493e-05 1.47654e-07 6.89867e-08 -4.46235e-08 1.62826e-07 8.44507e-08 1.08306e-06 0.0005 
319 1 -0.00118334 -0.0115252 0.000499765 0.000617627 -0.000402864 3.42015e-06 9.29814e-08 -5.62697e-08 -2.46104e-08 1.33641e-07 2.12472e-08 1.06496e-06 0.0005 
511 1 -1.21875e-05 -0.0111133 0.000499514 -2.5864e-05 -3.76396e-05 3.90884e-06 -6.46488e-08 3.98328e-08 3.45229e-08 4.45036e-08 -1.07045e-07 9.70055e-07 0.0005 
1144 1 -0.0080277 -0.0106669 0.000499807 -1.80591e-05 -5.06232e-06 -1.15463e-05 3.8167e-08 -3.82037e-08 1.45388e-08 -4.28674e-07 -6.43847e-08 1.40002e-06 0.0005 
353 1 -0.00577707 -0.0108799 0.000499649 -5.99778e-05 -0.000163959 -2.23229e-06 -1.49954e-07 -1.89713e-07 -5.55558e-09 -1.50559e-07 -1.58793e-08 1.11542e-06 0.0005 
1818 1 -0.00394044 -0.0105614 0.000499576 -2.61479e-05 -6.8608e-06 -7.73835e-07 9.26887e-08 1.70985e-07 4.63754e-08 1.46268e-07 8.13422e-08 1.12229e-06 0.0005 
1873 1 -0.00258329 -0.0104844 0.000499525 3.03537e-05 -3.59473e-05 -2.14742e-05 -9.81756e-09 2.92022e-08 2.63786e-08 1.70607e-07 -2.98464e-09 1.09472e-06 0.0005 
2211 1 -0.000754634 -0.0104435 0.000499482 3.03203e-05 1.67549e-05 -5.00785e-07 -1.41192e-08 3.74521e-08 -2.98332e-08 8.96027e-08 -1.57879e-07 1.02132e-06 0.0005 
647 1 -0.00885791 -0.00998806 0.000499736 -2.20186e-06 -3.93719e-06 1.04419e-05 3.58039e-08 -1.78645e-08 9.79894e-09 -3.61969e-07 -1.76158e-07 1.35585e-06 0.0005 
542 1 -0.00734061 -0.00994052 0.000499495 -1.986e-05 -3.96248e-05 1.33245e-05 2.37531e-08 4.44097e-08 1.84375e-08 -4.06317e-07 -1.45378e-07 1.07841e-06 0.0005 
1585 1 -0.00535693 -0.00993904 0.00049952 -3.79808e-05 -5.35614e-05 1.47944e-06 1.19516e-08 -1.09364e-07 5.34616e-08 -4.27023e-08 -9.54065e-08 1.10679e-06 0.0005 
2142 1 -0.00325529 -0.00974405 0.000499571 -2.57073e-05 -7.57093e-05 -1.64311e-05 -5.62853e-08 -5.28867e-08 1.93847e-08 1.11265e-07 -4.48277e-08 1.05241e-06 0.0005 
2090 1 -0.00148642 -0.00976208 0.000499796 -4.44944e-05 -5.81862e-05 2.76223e-06 -1.0347e-07 -1.08207e-07 -1.0056e-08 1.39732e-07 -3.95374e-07 9.36201e-07 0.0005 
2330 1 -0.00886386 -0.0089852 0.000499327 8.62651e-06 9.62686e-06 3.50615e-06 1.91337e-08 -4.71595e-08 1.9229e-08 -3.79548e-07 -2.72576e-07 9.86756e-07 0.0005 
733 1 -0.00681326 -0.00907604 0.000499634 -3.21719e-05 -5.8266e-05 -1.08337e-05 5.83263e-08 2.24e-09 4.59853e-08 -2.74102e-07 -7.89437e-08 1.08347e-06 0.0005 
1443 1 -0.0057541 -0.00889345 0.000499634 -4.60417e-05 -4.17202e-05 1.08812e-05 3.24526e-08 8.82285e-09 -2.34775e-08 -6.17545e-08 -1.17915e-07 1.10093e-06 0.0005 
1221 1 -0.00475433 -0.00887355 0.000499539 -1.42084e-05 -5.16617e-05 6.98087e-06 3.87268e-09 -3.23479e-08 3.52592e-08 6.19411e-08 -1.49916e-07 1.10204e-06 0.0005 
388 1 -0.00320783 -0.00874413 0.000499751 -2.66198e-05 5.37772e-05 7.08227e-06 -1.36296e-08 3.27592e-08 -5.3204e-09 4.23861e-08 -6.73151e-08 1.04965e-06 0.0005 
823 1 -0.00235802 -0.00927112 0.000499747 -3.90733e-05 -3.5003e-06 1.15601e-05 -4.7113e-08 4.78761e-08 3.30898e-08 9.9726e-08 -1.83793e-07 1.02738e-06 0.0005 
714 1 -0.00108463 -0.00881306 0.000499515 -4.01168e-05 -2.10867e-05 -2.8708e-05 9.04454e-08 1.16592e-07 2.11976e-08 1.33097e-07 -4.36187e-07 9.83955e-07 0.0005 
462 1 -8.63454e-05 -0.00886713 0.000499515 -6.57878e-05 -3.46471e-05 -4.1255e-06 -9.94358e-09 -1.37751e-08 6.911e-09 1.13757e-07 -2.54075e-07 8.90266e-07 0.0005 
529 1 -0.010211 -0.00860021 0.000499767 1.98184e-05 -2.62326e-05 2.69119e-06 3.82572e-08 -6.76131e-08 7.37472e-09 6.23133e-08 -4.70202e-07 1.36986e-06 0.0005 
359 1 -0.00934139 -0.008107 0.000499626 -1.02877e-06 5.99055e-06 -5.64399e-07 -9.97471e-09 -2.15094e-08 3.58083e-08 -3.09939e-07 -2.90166e-07 9.99174e-07 0.0005 
1505 1 -0.00808084 -0.00836321 0.000499731 8.43389e-05 1.37353e-05 1.81698e-05 -1.16005e-07 2.82157e-08 -7.67682e-09 -4.10465e-07 -9.54206e-08 9.80209e-07 0.0005 
2252 1 -0.00614142 -0.00797072 0.000499709 -8.51735e-06 -5.32643e-06 -1.11987e-07 9.90428e-08 6.94086e-08 -3.91632e-08 -1.52082e-07 1.0564e-07 1.06886e-06 0.0005 
2042 1 -0.00232652 -0.00827181 0.000499683 -6.01305e-06 1.26194e-05 5.53312e-06 7.21069e-08 2.26135e-08 2.44428e-08 -4.38183e-08 -2.39495e-07 1.06748e-06 0.0005 
1539 1 -0.0108395 -0.00779298 0.000499727 -1.04891e-05 1.83478e-05 6.30504e-06 -4.58261e-08 3.65863e-08 1.75681e-08 2.20036e-07 -4.12417e-07 1.59483e-06 0.0005 
986 1 -0.00813387 -0.00736467 0.000499785 -3.44623e-05 3.51594e-05 4.36519e-06 -1.04768e-07 -7.02189e-08 3.5804e-08 -5.22818e-07 -1.60085e-07 9.86093e-07 0.0005 
1847 1 -0.00710352 -0.00769848 0.00049945 -3.58961e-05 -6.78282e-05 -2.17461e-06 8.51274e-08 8.6597e-08 2.53084e-08 -3.04397e-07 6.29131e-08 1.09065e-06 0.0005 
1447 1 -0.00561211 -0.00712058 0.000499781 -7.62881e-06 -0.000102058 -1.51171e-05 7.29597e-08 -1.24839e-07 1.41129e-08 -9.97852e-08 1.5944e-07 1.08603e-06 0.0005 
1848 1 -0.00461925 -0.00723945 0.000499693 -4.32154e-05 -3.77758e-06 8.91776e-06 9.9761e-08 9.50533e-08 5.46989e-08 -4.10717e-08 2.15928e-07 1.1733e-06 0.0005 
2417 1 -0.00359186 -0.00734855 0.000499652 -4.39162e-05 3.00485e-05 -1.63608e-05 1.54909e-08 6.65119e-08 1.5612e-08 -1.59622e-07 3.08057e-08 1.12376e-06 0.0005 
1462 1 -0.00259287 -0.00730817 0.000499476 -9.06015e-05 -5.94086e-05 3.0386e-05 6.53401e-08 7.19556e-08 -1.1142e-08 -2.02169e-07 -1.816e-07 1.07348e-06 0.0005 
46 1 -0.00131073 -0.00783911 0.000499703 -0.000120931 -9.72333e-05 -9.71602e-07 2.43101e-07 2.23182e-07 -5.74392e-08 1.47994e-07 -4.63656e-07 1.15613e-06 0.0005 
1432 1 -0.000190547 -0.00787296 0.000499552 1.73572e-05 -4.71464e-05 1.9163e-06 1.50136e-07 4.27637e-08 2.48059e-08 2.73549e-07 -3.71612e-07 1.02046e-06 0.0005 
2195 1 -0.0115903 -0.00660124 0.000499584 -2.39309e-05 -4.33434e-05 2.24016e-05 -1.18563e-07 7.31555e-08 -5.65894e-08 4.99957e-07 -1.89582e-07 1.87219e-06 0.0005 
1429 1 -0.0105932 -0.00682381 0.000499797 2.10052e-05 4.33843e-06 3.51151e-06 2.26453e-08 2.71325e-09 1.07575e-08 2.71535e-07 -2.10578e-07 1.13705e-06 0.0005 
551 1 -0.00959917 -0.00693295 0.000499646 1.81612e-05 7.52054e-07 -1.01112e-06 -3.9123e-08 2.4626e-08 1.79421e-08 -9.85727e-08 -2.26599e-07 1.04076e-06 0.0005 
490 1 -0.00778406 -0.00634619 0.000499514 -8.79452e-05 2.67192e-05 9.34037e-06 1.22878e-07 -1.10406e-08 -2.15367e-08 -3.66967e-07 -9.93497e-08 1.03615e-06 0.0005 
1485 1 -0.0064718 -0.00658752 0.000499685 -9.60845e-05 -0.000130676 -8.05671e-06 1.71687e-07 1.04679e-07 1.1016e-07 -9.51304e-08 9.00207e-09 1.08115e-06 0.0005 
74 1 -0.00405254 -0.00640011 0.000499641 -0.000176619 -0.000250038 -8.30373e-07 1.12195e-07 -6.04715e-08 -2.76675e-08 -7.67594e-08 1.47464e-07 1.00249e-06 0.0005 
606 1 -0.0109688 -0.0058169 0.000499794 -1.26241e-05 -7.28898e-05 -3.73405e-06 -6.32896e-08 4.32052e-08 -4.3488e-08 4.26858e-07 -1.04773e-07 1.29378e-06 0.0005 
1293 1 -0.00998805 -0.00601189 0.000499705 -1.97781e-05 1.39564e-06 -7.41255e-06 -8.9461e-08 1.2819e-07 -1.9159e-08 3.53142e-07 -1.01442e-07 1.1993e-06 0.0005 
1263 1 -0.00885232 -0.00626799 0.000499795 0.000133458 -0.000135534 -9.40976e-07 -3.11022e-08 2.38011e-08 1.72167e-08 -2.1615e-07 -1.97078e-07 1.03684e-06 0.0005 
1248 1 -0.00701541 -0.00570662 0.000499723 -5.05448e-05 4.58387e-05 -3.72251e-05 -4.8916e-08 -3.34112e-07 -2.42097e-08 -2.06112e-07 -4.97317e-08 1.05679e-06 0.0005 
1101 1 -0.00560796 -0.00601521 0.000499541 -0.000119483 -0.000136042 3.52341e-05 1.58376e-07 -4.83725e-08 -2.70645e-08 1.84442e-08 2.9627e-08 1.08205e-06 0.0005 
817 1 -0.00467797 -0.00561425 0.000499647 -0.000147623 -0.000186881 -5.51734e-05 3.69223e-08 -1.23152e-07 1.34219e-07 -4.7853e-08 1.31103e-07 1.00554e-06 0.0005 
1969 1 -0.00335226 -0.00559029 0.000499541 -7.0501e-05 -5.70377e-05 -2.29032e-05 -7.67104e-08 1.02413e-08 -4.08877e-08 -4.52549e-07 -1.41001e-07 1.00463e-06 0.0005 
266 1 -0.00225241 -0.00609348 0.000499536 -0.000129858 -0.000146508 -8.81037e-06 -3.25024e-08 1.96771e-08 -3.05393e-08 -5.26029e-07 -3.82677e-07 1.00531e-06 0.0005 
1477 1 -0.000924772 -0.00625216 0.000499656 -0.000158466 -0.000166572 -2.14036e-05 7.55425e-08 4.41797e-08 1.55731e-07 7.80162e-08 -2.93242e-07 1.2152e-06 0.0005 
740 1 -8.31672e-05 -0.00559151 0.000499624 4.79255e-05 -0.000329736 -5.63453e-05 3.47572e-07 -1.56903e-07 1.61821e-07 4.15844e-07 -3.25949e-07 9.48102e-07 0.0005 
1091 1 -0.0121721 -0.00548378 0.000499549 7.68896e-06 -3.11575e-05 5.57175e-06 -5.67834e-08 6.31331e-08 2.91374e-08 3.8587e-07 -1.00768e-07 1.98775e-06 0.0005 
900 1 -0.0113623 -0.00489742 0.000499643 -3.81121e-05 3.09225e-06 9.90024e-06 -3.03745e-08 1.25573e-07 -3.5005e-08 3.15814e-07 -5.82846e-08 1.049e-06 0.0005 
1315 1 -0.0103091 -0.00483754 0.000499619 -6.99475e-05 5.80027e-05 -2.1083e-05 1.44863e-08 8.21298e-09 5.55651e-08 3.15968e-07 -4.04548e-08 1.17362e-06 0.0005 
53 1 -0.00867277 -0.00528379 0.000499536 -4.86619e-05 1.9449e-05 1.21822e-05 2.62188e-09 1.30418e-08 -5.56299e-08 -8.51341e-09 -1.7656e-07 1.09953e-06 0.0005 
93 1 -0.00731648 -0.0047508 0.000499737 4.64281e-05 0.000105187 1.32903e-05 7.49806e-08 -1.36508e-07 -2.68079e-08 -2.76458e-08 -8.34615e-08 1.04241e-06 0.0005 
1403 1 -0.00565067 -0.00495893 0.000499643 -9.17794e-05 -8.71893e-05 4.63495e-06 4.41255e-07 1.36011e-07 1.09376e-07 -5.37689e-08 -4.86689e-09 1.06933e-06 0.0005 
2181 1 -0.00395661 -0.00479423 0.000499585 -0.000144772 -0.000156499 -2.20461e-05 2.10274e-07 2.23793e-07 -1.69944e-07 -4.24019e-07 -1.01565e-07 1.05744e-06 0.0005 
152 1 -0.0025726 -0.00496439 0.000499809 1.35447e-05 -8.77594e-05 1.52093e-05 -9.98315e-08 6.03e-08 1.63881e-08 -4.98161e-07 -1.65575e-07 1.1803e-06 0.0005 
262 1 -0.000963344 -0.00509984 0.000499668 -6.47913e-05 -0.000201188 2.07736e-05 1.01793e-07 -1.62726e-07 -5.04986e-08 7.79471e-08 -1.38963e-07 1.21333e-06 0.0005 
890 1 -0.0125486 -0.0045565 0.000499725 -7.29127e-06 2.64021e-06 -1.1303e-05 -3.50609e-08 -3.6743e-08 3.94501e-08 1.64558e-07 -6.18991e-08 1.85852e-06 0.0005 
2 1 -0.0108908 -0.00401579 0.000499739 -4.05367e-05 1.18476e-05 -1.78293e-06 -1.28751e-07 8.48503e-08 -4.35561e-08 1.533e-07 -2.08427e-08 1.06018e-06 0.0005 
12 1 -0.00938427 -0.00445741 0.000499725 -6.12304e-05 7.40026e-05 1.13475e-05 5.36905e-08 -1.52046e-07 -9.65197e-08 7.73124e-08 -8.95219e-08 1.10052e-06 0.0005 
1415 1 -0.00839328 -0.00432383 0.000499626 -9.26255e-06 1.49388e-05 1.46134e-06 8.00537e-08 4.01827e-08 1.45125e-08 3.30894e-09 -1.02125e-07 1.07025e-06 0.0005 
2064 1 -0.00595346 -0.00400604 0.000499385 3.8421e-05 -4.04673e-05 5.31564e-05 2.21179e-08 -5.08607e-08 1.71192e-08 -4.57605e-08 -2.14371e-08 1.0639e-06 0.0005 
1452 1 -0.00495414 -0.00403081 0.000499608 2.0297e-05 -9.2047e-05 1.59957e-05 -2.91844e-08 -8.70294e-09 5.02173e-09 -2.16056e-07 -4.42737e-08 1.06215e-06 0.0005 
1459 1 -0.00317684 -0.00416753 0.000499599 -0.000115065 -5.18914e-05 8.45221e-06 1.37154e-08 -1.14539e-07 2.13842e-08 -5.24673e-07 -5.3882e-08 1.20644e-06 0.0005 
1507 1 -0.00173766 -0.00441438 0.000499762 -3.54118e-05 -1.16526e-05 2.08103e-06 6.64285e-08 -6.86677e-08 4.8856e-09 -2.46097e-07 -3.68932e-08 1.22374e-06 0.0005 
2217 1 -0.000783247 -0.0041163 0.000499564 -5.85486e-05 -0.000112912 7.55309e-05 1.22656e-07 -1.98811e-07 1.88581e-08 2.11235e-07 8.11842e-08 1.21766e-06 0.0005 
982 1 -0.0128453 -0.00345903 0.000499647 0.000806857 0.000245578 3.41996e-05 7.25527e-08 4.48259e-09 -4.36225e-08 1.1376e-07 -4.56683e-08 1.76625e-06 0.0005 
1544 1 -0.00998379 -0.00359531 0.000499765 -2.21911e-05 1.01404e-05 3.10041e-07 -1.33365e-07 1.46544e-07 -2.28424e-08 4.69668e-08 -2.68456e-08 1.08068e-06 0.0005 
2007 1 -0.00898686 -0.00351928 0.00049971 -3.60711e-05 2.2983e-05 4.62222e-06 -7.85284e-08 9.17973e-08 2.29973e-08 -7.59628e-08 -8.11277e-09 1.10187e-06 0.0005 
1617 1 -0.00781309 -0.00350178 0.000499531 4.10989e-05 0.000130879 5.00579e-06 8.70815e-08 3.2697e-07 -6.89686e-08 -2.18369e-08 -3.6924e-08 1.10312e-06 0.0005 
230 1 -0.00402892 -0.00362466 0.000499675 -3.3817e-05 -0.000139221 -4.84371e-05 9.03494e-08 2.8249e-07 1.3449e-08 -3.54274e-07 -3.53585e-09 1.04668e-06 0.0005 
1067 1 -0.0023968 -0.00354206 0.000499635 -4.78393e-05 -3.63009e-05 2.81233e-05 7.24137e-08 6.56043e-08 -1.5095e-07 -4.48705e-07 8.7956e-08 1.13783e-06 0.0005 
9 1 -0.0130656 -0.0024745 0.000499701 3.6927e-05 -1.22859e-05 1.98905e-05 7.19882e-08 -5.70881e-08 5.48267e-09 2.17447e-07 -9.37937e-08 1.85861e-06 0.0005 
2406 1 -0.0116621 -0.00306303 0.000499544 -4.05646e-05 1.21509e-05 6.765e-06 -9.54641e-08 1.01996e-07 -5.02092e-10 1.7218e-07 -3.86009e-08 1.11159e-06 0.0005 
178 1 -0.00953594 -0.00268061 0.000499766 6.85848e-06 0.000113096 2.72842e-06 -8.39675e-08 -1.10397e-07 -1.42744e-08 -5.64457e-08 -1.08418e-08 1.10305e-06 0.0005 
1238 1 -0.00853064 -0.00262978 0.000499725 -2.89145e-05 2.24916e-05 4.36765e-05 -7.4607e-08 1.24877e-07 -1.1689e-07 -7.75392e-08 -1.35845e-08 1.11189e-06 0.0005 
1610 1 -0.00702141 -0.00269529 0.000499795 -0.000129758 -0.00022475 7.71725e-07 3.21161e-09 1.12716e-08 -7.4887e-09 6.9045e-09 3.38383e-09 1.10761e-06 0.0005 
391 1 -0.00603887 -0.00288132 0.000499795 -0.000127642 -0.000273018 1.56641e-06 -7.90722e-08 -1.29173e-07 -8.22542e-08 5.35961e-08 -6.24481e-09 1.07494e-06 0.0005 
1178 1 -0.00505086 -0.00303551 0.000499786 -6.71027e-05 -5.74788e-05 8.89184e-06 -1.7108e-07 -1.33415e-07 3.9322e-08 -6.70118e-08 2.03624e-08 1.0322e-06 0.0005 
1798 1 -0.00415262 -0.00259619 0.00049971 -4.06545e-05 4.771e-06 -2.40753e-07 -2.24106e-07 -4.73696e-07 -9.05901e-08 -1.31558e-07 7.98843e-08 1.00898e-06 0.0005 
619 1 -0.00324054 -0.00300571 0.000499642 -4.65445e-05 -6.39226e-05 3.58564e-05 -3.69889e-08 -2.64678e-07 8.89415e-09 -4.22247e-07 1.53554e-07 9.9386e-07 0.0005 
38 1 -0.00237389 -0.00250701 0.00049968 7.23316e-05 -0.00014642 4.06388e-06 -8.23627e-08 -5.84983e-07 1.67978e-08 -4.77683e-07 2.90183e-07 9.86835e-07 0.0005 
736 1 -0.00079889 -0.00294459 0.000499746 -9.18305e-05 5.93488e-05 -2.63778e-05 -2.33084e-07 1.21667e-07 -1.56417e-07 -1.07244e-07 1.40257e-07 1.20957e-06 0.0005 
186 1 -0.0124327 -0.00170053 0.000499452 -0.000127659 0.000115648 1.02911e-05 -1.53636e-08 1.0297e-08 6.98685e-10 3.54496e-07 -1.14184e-07 1.23341e-06 0.0005 
459 1 -0.011443 -0.00208744 0.000499779 -5.47411e-05 -2.78922e-06 9.9456e-06 1.00862e-07 1.07684e-07 -1.52598e-07 3.0256e-07 -7.76276e-08 1.07913e-06 0.0005 
866 1 -0.0104741 -0.0023345 0.000499684 -4.55872e-05 -1.00093e-05 -1.62143e-05 -8.28947e-08 -9.03979e-08 1.26843e-08 1.23823e-07 -6.93687e-08 1.02108e-06 0.0005 
1411 1 -0.00937768 -0.00168459 0.000499595 -4.51083e-05 3.51871e-05 1.63832e-05 6.46934e-08 -3.70354e-10 -8.11e-08 1.25954e-09 -1.32658e-07 9.86491e-07 0.0005 
1278 1 -0.00774784 -0.00200793 0.000499583 -4.9302e-05 8.25546e-05 4.31349e-05 2.34219e-08 2.68979e-08 -1.58548e-07 -4.6268e-08 1.05684e-08 1.10631e-06 0.0005 
62 1 -0.00597241 -0.00188355 0.000499755 -0.000400174 -0.000256651 1.99863e-05 4.20941e-08 -3.16595e-07 -3.65285e-08 4.23356e-08 1.31174e-08 1.06622e-06 0.0005 
1669 1 -0.00497941 -0.00203405 0.000499635 -5.89007e-05 -2.97321e-05 1.42199e-05 9.55277e-08 -6.75851e-08 -4.70027e-08 -2.08496e-08 6.28029e-09 9.83056e-07 0.0005 
695 1 -0.00124968 -0.0019725 0.000499685 -0.000190739 -5.49476e-05 2.08556e-05 4.85947e-08 3.85127e-08 -9.91987e-08 -2.66316e-07 1.38924e-07 1.18444e-06 0.0005 
1530 1 -0.0132938 -0.00119222 0.000499811 0.000130247 0.000569018 2.64154e-06 -6.72949e-08 6.07006e-08 1.22025e-08 2.85419e-07 -8.06287e-08 1.95676e-06 0.0005 
1654 1 -0.0107131 -0.00136374 0.000499525 3.53131e-06 -1.87302e-05 1.67897e-05 -1.95845e-08 3.67144e-08 2.38282e-08 3.03684e-07 -9.60691e-08 1.08262e-06 0.0005 
299 1 -0.00772907 -0.00100659 0.000499754 0.000101646 0.000263251 2.22313e-05 2.1225e-07 -6.36263e-08 -4.23593e-09 -1.04321e-07 5.53988e-08 1.06587e-06 0.0005 
98 1 -0.00667804 -0.00106304 0.000499498 -6.08171e-05 6.27607e-05 2.74926e-05 1.65625e-07 -2.72071e-07 -1.13756e-07 1.59199e-08 8.62956e-08 1.05253e-06 0.0005 
1060 1 -0.00391432 -0.00156753 0.000499576 -0.000247501 -7.94948e-05 2.56715e-05 3.81186e-07 2.73479e-07 -5.62913e-08 -1.95567e-07 -1.02426e-07 9.42338e-07 0.0005 
781 1 -0.00214925 -0.001258 0.000499705 -0.000293262 0.000129262 1.10895e-05 3.33452e-07 2.95815e-07 2.44143e-07 -4.43866e-07 -4.2495e-08 9.58418e-07 0.0005 
1955 1 -0.0003341 -0.00148204 0.00049954 8.39965e-05 2.16009e-05 6.34377e-06 -2.87417e-07 -2.20311e-07 2.2274e-07 -1.25004e-07 9.31376e-08 1.07345e-06 0.0005 
967 1 -0.0133487 -0.000188687 0.000499771 -3.43988e-05 -4.53715e-05 4.27521e-05 2.43576e-07 -5.20678e-08 2.04402e-08 2.30821e-07 6.52508e-08 1.9949e-06 0.0005 
1675 1 -0.0124481 -0.000623206 0.00049978 -3.60275e-06 -2.6625e-05 -2.38412e-05 3.33857e-08 4.80426e-08 1.55807e-07 3.59051e-07 -6.79343e-08 1.23564e-06 0.0005 
2125 1 -0.0114026 -3.43537e-05 0.000499799 0.000194484 -0.000281704 7.20228e-07 2.67111e-08 1.195e-08 5.54666e-09 1.82358e-07 2.16788e-08 1.14171e-06 0.0005 
2169 1 -0.00952849 -0.000696266 0.000499727 -5.75207e-05 5.56887e-05 -4.53993e-05 4.98795e-08 -3.63885e-08 -2.62911e-08 5.64163e-08 -1.80376e-07 9.74466e-07 0.0005 
6577 1 -0.0085815 -0.000375877 0.000499514 -0.000130418 7.20137e-05 9.89414e-06 2.49265e-07 3.32115e-08 -1.18148e-07 4.9749e-08 -1.59001e-08 1.00748e-06 0.0005 
6638 1 -0.00682861 -7.49006e-05 0.000499547 -0.000175365 4.75574e-05 -6.29522e-05 4.30954e-08 -2.48642e-07 8.89022e-08 9.04213e-09 1.55859e-07 9.07289e-07 0.0005 
1600 1 -0.00576795 -0.000649238 0.000499588 -0.000146605 9.9184e-05 -3.06835e-06 1.52788e-07 -1.87143e-07 1.90163e-08 -5.73055e-09 6.804e-08 1.04896e-06 0.0005 
108 1 -0.00327586 -0.000744324 0.000499623 -0.000173026 4.52121e-05 8.70914e-06 2.1021e-07 -2.72105e-07 -7.69533e-08 -3.50843e-07 -1.62727e-07 9.47118e-07 0.0005 
288 1 -0.00179545 -0.000322811 0.000499578 -0.00015504 0.000174537 -5.95843e-06 -7.89155e-09 1.37754e-08 8.35369e-09 -2.34627e-07 -6.93511e-08 9.90806e-07 0.0005 
1934 1 -0.000391988 -0.000483936 0.000499601 5.53076e-05 2.75636e-05 -2.16499e-05 -1.09111e-07 -1.82196e-07 2.12559e-07 -2.45034e-08 1.16621e-07 1.06571e-06 0.0005 
1180 1 -0.00374399 -0.0128146 0.000924268 3.8429e-05 -3.56472e-05 -3.99233e-05 3.39452e-08 -1.27325e-08 2.70434e-08 1.68719e-08 4.92353e-08 2.17312e-06 0.0005 
1047 1 -0.00271351 -0.0130717 0.000940543 2.81619e-05 6.28845e-08 7.69574e-06 2.32093e-08 -1.05205e-08 -5.06448e-08 1.46957e-07 9.57633e-08 2.30407e-06 0.0005 
2053 1 -0.00467718 -0.0125041 0.000745128 4.22034e-05 -2.27471e-05 -8.18276e-05 6.79212e-08 2.34965e-08 -1.91356e-08 -7.25697e-08 6.73011e-08 2.01397e-06 0.0005 
427 1 -0.00477349 -0.0110156 0.001168 -2.33166e-05 -4.46434e-05 -5.17113e-05 7.48751e-08 1.97398e-08 -1.63056e-07 6.17435e-09 3.72443e-08 2.27096e-06 0.0005 
2081 1 -0.00166399 -0.0106877 0.00083505 3.23528e-05 4.09622e-05 3.00458e-06 4.8479e-08 8.61764e-08 2.49349e-08 1.13672e-07 -5.35266e-08 1.67381e-06 0.0005 
1375 1 -0.00811407 -0.00948152 0.000935547 -4.18692e-06 -1.39085e-06 -1.93663e-06 2.0024e-08 -1.05059e-10 1.21399e-08 -4.74371e-07 -2.07361e-07 1.99987e-06 0.0005 
1658 1 -0.00634872 -0.0100602 0.000530972 -4.01554e-05 -0.000159697 8.95046e-06 -1.30865e-08 -1.55371e-07 4.82957e-08 -2.05832e-07 -1.11411e-07 1.17754e-06 0.0005 
110 1 -0.00455742 -0.0100424 0.00109056 -6.13678e-05 -5.15182e-05 2.12516e-05 -1.60309e-09 5.58057e-08 8.05359e-08 3.90005e-08 -3.70225e-08 2.11068e-06 0.0005 
1487 1 -0.00224131 -0.00992046 0.00125095 -4.95042e-05 -3.25939e-05 1.90802e-05 3.26444e-10 4.51707e-08 2.31132e-08 7.63317e-08 -1.65323e-07 2.26303e-06 0.0005 
2461 1 -0.00958349 -0.00929473 0.00111991 -1.43717e-05 3.2459e-05 -1.52156e-05 3.33753e-08 -1.50313e-08 7.43618e-09 -1.45075e-07 -3.46077e-07 2.30184e-06 0.0005 
1750 1 -0.00396625 -0.0092424 0.000991866 3.3453e-07 -0.000115604 -1.97808e-05 1.46961e-08 9.21491e-08 1.15459e-07 8.92652e-08 -8.98298e-08 2.10942e-06 0.0005 
243 1 -0.00696554 -0.00838861 0.00120952 9.49612e-05 -6.38792e-05 -2.68016e-05 -8.92556e-08 5.14591e-08 1.28014e-07 -2.51076e-07 1.65109e-07 2.56799e-06 0.0005 
948 1 -0.00518321 -0.0080156 0.00078131 1.80034e-05 -3.12208e-05 9.96724e-06 9.9114e-08 -2.45985e-08 2.74376e-08 -2.53162e-08 1.12519e-07 1.74425e-06 0.0005 
793 1 -0.00403049 -0.00821974 0.000718797 -5.66468e-05 3.07176e-05 1.20488e-05 2.22054e-08 5.36937e-08 6.3932e-08 -2.16872e-08 5.03596e-08 1.38849e-06 0.0005 
1694 1 -0.00170019 -0.00853032 0.00123471 3.47954e-05 1.19659e-05 -3.0772e-05 2.56373e-07 2.51218e-07 4.06169e-08 3.99138e-08 -3.4477e-07 2.29877e-06 0.0005 
842 1 -0.0100259 -0.00764195 0.00106072 4.59803e-07 2.63144e-05 1.17466e-05 -4.62392e-08 1.74048e-08 6.32602e-08 -4.19773e-08 -3.51024e-07 2.03015e-06 0.0005 
239 1 -0.00900729 -0.00741884 0.00114301 -5.59644e-05 7.14389e-06 1.48703e-05 -8.3128e-08 1.05301e-07 -4.68298e-08 -4.6784e-07 -2.66431e-07 2.25182e-06 0.0005 
13 1 -0.00304884 -0.00786641 0.00119212 -5.22904e-05 -0.000104533 2.97988e-05 2.10567e-07 9.04126e-08 5.93135e-08 -1.76582e-07 -1.11822e-07 2.42579e-06 0.0005 
1059 1 -0.00717893 -0.00674256 0.00118946 -0.000155416 -3.96214e-05 9.00125e-06 6.95702e-08 5.76107e-08 2.8796e-08 -3.07613e-07 -2.25968e-08 2.34368e-06 0.0005 
830 1 -0.0048839 -0.00642413 0.00105436 -0.000190772 -0.000312961 2.72597e-05 2.4244e-07 1.51515e-07 5.45023e-08 7.01401e-09 1.5644e-07 2.0166e-06 0.0005 
515 1 -0.00310794 -0.00650904 0.000808062 -0.000150989 -8.65907e-05 3.79275e-05 2.92044e-08 3.44274e-08 -3.43529e-08 -4.37169e-07 -1.95243e-07 1.53757e-06 0.0005 
2336 1 -0.00167677 -0.00690977 0.000541158 -0.000132427 -0.000130261 -4.65164e-05 3.65154e-08 1.43379e-07 4.23605e-08 -1.35036e-07 -3.24824e-07 1.03148e-06 0.0005 
2421 1 -0.000546689 -0.00705781 0.000955327 4.03909e-07 -7.69117e-05 1.85724e-05 1.69957e-07 1.19368e-07 1.23843e-07 2.25288e-07 -4.10547e-07 2.0957e-06 0.0005 
1645 1 -0.00625607 -0.00560828 0.00114259 -0.000153234 -9.32841e-05 3.68473e-05 4.69785e-09 -2.60622e-07 -1.73639e-07 3.32248e-08 -3.54508e-08 2.34605e-06 0.0005 
100 1 -0.00401358 -0.00568599 0.00124319 -0.000130517 -0.000168401 -0.000103472 3.239e-07 -6.0021e-08 1.68237e-07 -1.22791e-07 1.12662e-07 2.34888e-06 0.0005 
2208 1 -0.00153183 -0.00569551 0.00106666 -6.29846e-05 -0.00025943 -3.17697e-05 1.42867e-07 2.49515e-08 -5.70718e-08 -2.04227e-07 -2.54754e-07 2.2969e-06 0.0005 
220 1 -0.00939792 -0.00552552 0.00114366 -9.52306e-05 6.77425e-05 -1.92011e-05 -1.48179e-08 6.13565e-08 -1.99212e-08 2.08152e-07 -1.30512e-07 2.52205e-06 0.0005 
1211 1 -0.00784376 -0.00549315 0.00101732 -4.95903e-05 3.29346e-05 3.92147e-06 -8.17798e-08 6.55993e-08 -1.0728e-08 -2.02247e-07 -1.07567e-07 1.93742e-06 0.0005 
565 1 -0.00329491 -0.00481941 0.00124859 -0.000139759 -0.000142181 1.41866e-05 3.34341e-07 -2.78229e-08 -4.69129e-08 -4.57759e-07 -1.13055e-07 2.44117e-06 0.0005 
2300 1 -0.0118199 -0.0039792 0.000867237 -5.90929e-05 2.3207e-05 -1.74954e-05 -7.01807e-08 -1.14829e-08 7.29602e-08 1.3734e-07 -1.3038e-08 1.99766e-06 0.0005 
1986 1 -0.00646772 -0.00463303 0.00108391 2.02728e-05 -4.05289e-05 2.63787e-05 -2.9346e-07 -7.11485e-08 -4.69482e-07 -5.05256e-08 -3.85729e-08 2.16522e-06 0.0005 
1236 1 -0.00462074 -0.00462878 0.00122806 -0.000253912 -0.000441419 -0.000127379 2.58958e-07 -3.70094e-07 -1.5564e-07 -3.09193e-07 -7.80402e-08 2.37932e-06 0.0005 
483 1 -0.00252267 -0.00418436 0.00125544 -8.58008e-05 -0.000242311 -9.69335e-05 1.98501e-07 4.85853e-07 -1.1875e-07 -6.2224e-07 -9.79403e-08 2.94936e-06 0.0005 
696 1 -0.00687081 -0.00370788 0.000761986 -1.94019e-05 -9.3005e-05 4.75885e-05 1.53564e-09 1.26609e-07 1.16544e-07 -1.45049e-08 -3.52046e-08 1.45998e-06 0.0005 
704 1 -0.00148706 -0.00353968 0.000914295 -7.25179e-05 1.40882e-05 1.14742e-06 1.64207e-08 2.4455e-08 -1.68892e-07 -1.4579e-07 9.55091e-08 1.90713e-06 0.0005 
2160 1 -7.71291e-05 -0.00354713 0.000919873 -3.52167e-05 -0.000115783 0.000248033 1.31927e-07 -1.12903e-07 8.55222e-08 1.17244e-07 -2.81016e-08 1.77698e-06 0.0005 
532 1 -0.0107928 -0.00314779 0.000985891 -3.61044e-05 2.11708e-05 -1.27201e-05 -1.52353e-07 -6.76814e-08 -4.96522e-08 7.38426e-08 -2.07615e-08 2.09912e-06 0.0005 
1201 1 -0.00781622 -0.00277328 0.00118435 0.000350893 0.000277919 -0.000241708 -1.19839e-07 2.90204e-07 -8.53116e-08 -4.59953e-08 7.26434e-09 2.62087e-06 0.0005 
2224 1 -0.0085531 -0.0017977 0.00105343 -8.42186e-05 7.01716e-05 4.77634e-05 9.49699e-08 4.5858e-08 -1.65209e-07 -5.61583e-08 -4.31355e-08 1.88317e-06 0.0005 
1596 1 -0.00696928 -0.00181119 0.00109505 -0.000109014 0.000103168 0.000114139 -9.32341e-08 -6.8875e-08 -2.69552e-08 -3.21222e-08 3.70538e-08 1.94525e-06 0.0005 
2261 1 -0.00297189 -0.00175458 0.000775656 -0.00017746 -0.000109639 -0.000138196 2.44032e-07 -8.80334e-08 -3.40588e-07 -4.28253e-07 4.44912e-08 1.46611e-06 0.0005 
78 1 -0.0116477 -0.00115088 0.00078384 -3.13922e-05 1.37695e-05 -6.4413e-05 6.52693e-08 -2.28714e-08 9.64886e-08 4.08846e-07 -8.91029e-08 1.74489e-06 0.0005 
367 1 -0.0100491 -0.00115747 0.00121797 -1.60777e-05 1.75227e-05 6.57161e-06 -1.1284e-08 3.03421e-08 -1.04914e-07 1.60539e-07 -1.95831e-07 2.42768e-06 0.0005 
5 1 -0.00507255 -0.00117009 0.000993843 -0.000376548 -9.99771e-05 0.000118958 2.61397e-07 -1.82618e-07 -1.36917e-07 -3.47818e-08 -1.10604e-07 1.85938e-06 0.0005 
1357 1 -0.00116563 -0.00102953 0.000821272 -1.70353e-07 3.67665e-05 -0.000157412 -1.77975e-07 -1.93552e-07 -3.78507e-07 -2.53579e-07 2.83035e-08 1.74601e-06 0.0005 
2095 1 -0.0104754 -0.000400741 0.00062405 -4.5428e-05 1.45104e-06 2.34878e-05 1.80699e-08 5.78596e-09 1.84956e-08 2.25993e-07 -9.27203e-08 1.25199e-06 0.0005 
42 1 -0.00420511 -0.000687619 0.000874957 -0.000439981 9.19699e-06 -2.45427e-05 2.10398e-07 -2.7398e-08 9.0498e-08 -1.26056e-07 -2.95514e-07 1.61109e-06 0.0005 
548 1 -0.00253011 -0.000553143 0.00113748 -0.000149378 0.000163679 -4.31732e-05 -1.48408e-07 -2.03617e-07 -1.0204e-07 -4.04918e-07 -1.64519e-07 2.28962e-06 0.0005 
805 1 -0.00293572 -0.0130233 0.00191414 -0.000136154 5.18696e-05 -5.71853e-05 3.42439e-07 1.74737e-07 2.61509e-08 7.37832e-08 3.1373e-08 3.6065e-06 0.0005 
643 1 -0.00198751 -0.0132016 0.0016153 3.96304e-05 -1.01924e-05 -2.52956e-05 1.60142e-08 -5.77701e-09 -2.85018e-08 2.22283e-07 1.10091e-07 3.24524e-06 0.0005 
1951 1 -0.000908165 -0.0133192 0.00130861 1.609e-05 5.89579e-06 -9.19883e-06 1.71644e-09 3.82147e-08 -1.26585e-07 2.7456e-07 9.54029e-08 2.71705e-06 0.0005 
1971 1 -0.000138086 -0.0126723 0.00125703 -3.08257e-05 -1.17742e-05 2.055e-06 6.68489e-08 1.8066e-08 -8.94e-10 1.10386e-07 -1.86456e-07 2.28702e-06 0.0005 
2416 1 -0.000185056 -0.0133487 0.00199842 1.61114e-05 3.01781e-05 -2.44144e-06 -4.90677e-08 1.37523e-08 -7.58588e-08 1.16906e-07 -2.444e-08 3.42165e-06 0.0005 
2017 1 -0.00570795 -0.0119627 0.00126999 8.74187e-05 -0.000330159 -0.000145144 2.3835e-07 8.49505e-08 -9.47033e-08 -1.81847e-07 6.97722e-08 2.73408e-06 0.0005 
527 1 -0.00436019 -0.012618 0.00168666 5.76578e-05 -3.11544e-05 -5.84776e-05 -6.71143e-08 2.9339e-10 -2.95339e-08 -3.65679e-08 5.48708e-08 3.20286e-06 0.0005 
2327 1 -0.00336343 -0.0120742 0.00147806 -5.17048e-06 -3.58091e-05 -6.11662e-06 1.8242e-07 3.47876e-08 -1.53952e-07 4.97759e-08 7.78051e-08 2.9013e-06 0.0005 
886 1 -0.00238352 -0.0122687 0.00143628 7.75967e-06 1.04902e-05 -2.85244e-05 6.74731e-08 5.65755e-08 -9.557e-08 1.54764e-07 1.18962e-07 2.7607e-06 0.0005 
848 1 -0.0014185 -0.0124608 0.00125954 1.28862e-05 1.87376e-05 -4.82382e-05 1.84175e-08 2.53318e-09 1.07118e-08 2.82139e-07 1.77469e-07 2.67028e-06 0.0005 
125 1 -0.000675672 -0.0119414 0.00168111 -8.755e-05 5.03447e-05 7.85723e-05 1.18201e-07 -9.98199e-08 -1.55555e-09 1.18538e-07 2.12638e-09 3.08564e-06 0.0005 
2456 1 -0.00683652 -0.0114669 0.00140272 -4.71627e-05 -2.37087e-05 -2.49554e-05 -6.79658e-08 6.25595e-08 1.3884e-07 -2.32423e-07 8.55021e-08 2.87051e-06 0.0005 
461 1 -0.00539947 -0.0112582 0.00190903 -5.9225e-05 -0.00030087 -0.000151526 1.20405e-07 3.08264e-08 -8.83391e-08 -1.04068e-07 5.26097e-08 3.59246e-06 0.0005 
2263 1 -0.00447809 -0.0116459 0.00188865 3.16035e-05 -5.59653e-05 -7.22673e-05 8.89147e-08 5.49872e-08 -4.4205e-08 -1.34668e-08 6.24128e-08 3.49997e-06 0.0005 
1851 1 -0.00379962 -0.0111899 0.00131286 2.03792e-05 -1.74415e-05 -9.61515e-06 1.09398e-07 2.63718e-08 7.42345e-08 1.37743e-07 1.30033e-07 2.73539e-06 0.0005 
947 1 -0.00270734 -0.0113262 0.00135541 -3.4107e-05 -2.22241e-05 -6.00463e-06 2.64913e-07 9.87598e-08 -1.06582e-07 1.63468e-07 1.10499e-07 2.69989e-06 0.0005 
2112 1 -0.00172472 -0.011518 0.00138843 -1.43036e-05 2.31465e-05 -1.33245e-05 1.6489e-07 -4.19054e-08 3.42086e-08 1.19557e-07 4.65424e-08 2.69383e-06 0.0005 