ITEM: TIMESTEP
65000
ITEM: NUMBER OF ATOMS
10000
ITEM: BOX BOUNDS mm mm mm
-0.015 0.015
-0.015 0.015
-0.001 0.0554
ITEM: ATOMS id type x y z vx vy vz fx fy fz f_dragforce[1] f_dragforce[2] f_dragforce[3] radius 
1359 1 -0.00149306 -0.0132663 0.000499699 -2.24615e-05 -9.93732e-07 8.83732e-06 1.64824e-07 6.1129e-08 -1.46813e-09 2.98626e-08 -5.6915e-09 1.74408e-06 0.0005 
637 1 -0.00304661 -0.012239 0.000499399 -2.76121e-06 1.63603e-05 7.7096e-06 1.93626e-07 -2.20019e-09 3.29102e-08 1.40154e-08 8.8686e-08 1.13827e-06 0.0005 
1496 1 -0.00206914 -0.0124491 0.000499612 -3.61559e-06 1.01495e-05 4.98298e-06 1.10367e-07 1.52341e-07 -3.24197e-09 2.72877e-08 3.06136e-08 1.23604e-06 0.0005 
502 1 -0.000769038 -0.01252 0.000499472 -6.05526e-05 -0.000116364 3.09139e-05 -9.9634e-08 4.77688e-08 1.1371e-07 2.65685e-08 -1.11191e-08 1.12539e-06 0.0005 
1195 1 -0.00706543 -0.011105 0.000499576 -3.04453e-05 -4.24716e-05 1.64421e-06 1.33446e-07 6.76922e-08 2.67216e-08 -2.38245e-07 -6.14899e-09 1.45838e-06 0.0005 
1356 1 -0.00631292 -0.0117632 0.000499751 8.02228e-06 -5.10986e-07 -4.74249e-06 1.22412e-08 -5.70222e-08 -6.55579e-08 -2.04779e-07 6.11493e-08 1.63338e-06 0.0005 
939 1 -0.00514835 -0.011659 0.000499545 2.01136e-05 2.04568e-05 1.86847e-05 5.6153e-08 1.84022e-07 7.89234e-08 -1.14359e-07 6.81186e-08 1.21065e-06 0.0005 
1758 1 -0.0041485 -0.0116559 0.000499711 1.21189e-05 -0.000168454 -2.04705e-05 9.77684e-08 -2.98357e-07 -1.28817e-08 -2.72617e-08 8.69975e-08 1.05844e-06 0.0005 
656 1 -0.00322209 -0.0112553 0.000500187 -3.06412e-05 2.16992e-05 1.95393e-05 1.21682e-07 -7.06701e-10 7.08939e-08 1.00403e-08 1.11202e-07 1.13701e-06 0.0005 
758 1 -0.00220738 -0.0114578 0.000499665 -8.8992e-05 6.59819e-05 1.60355e-05 3.14135e-08 -2.35841e-08 6.30563e-08 -3.08662e-09 6.33857e-08 1.11748e-06 0.0005 
319 1 -0.00120368 -0.0115101 0.000499785 -0.000115392 6.16292e-05 1.19853e-05 3.09605e-07 -8.10155e-08 -5.24787e-08 -2.38077e-08 2.88783e-08 1.10928e-06 0.0005 
511 1 -1.19046e-05 -0.011113 0.000499478 9.89394e-05 0.000100456 4.73656e-05 -2.51277e-09 1.09628e-07 -6.3239e-08 -7.46654e-09 3.07158e-08 9.33097e-07 0.0005 
1144 1 -0.00802834 -0.0106665 0.000499771 1.25789e-05 -1.53273e-05 -1.3872e-05 2.66385e-08 -8.19482e-08 1.32654e-08 -2.7224e-07 -6.99213e-08 1.39528e-06 0.0005 
353 1 -0.00577791 -0.0108824 0.00049962 2.00333e-05 2.68553e-05 -4.27276e-05 -1.07228e-08 3.24167e-07 -1.56854e-07 -1.47586e-07 -1.88606e-08 1.11244e-06 0.0005 
1818 1 -0.00394106 -0.0105614 0.00049953 -0.000145511 -9.81933e-05 9.18441e-06 7.61398e-09 -9.01611e-08 3.25404e-08 5.18852e-09 6.75128e-08 1.13412e-06 0.0005 
1873 1 -0.00258347 -0.0104865 0.000499543 -5.29001e-07 1.51113e-05 1.71037e-05 7.03291e-08 2.46206e-08 9.39747e-08 1.37194e-08 4.56117e-08 1.11494e-06 0.0005 
2211 1 -0.000755381 -0.0104446 0.000499456 5.53882e-06 3.69049e-05 1.52717e-05 5.45167e-08 1.58675e-07 5.25493e-08 -3.75277e-08 -6.40181e-09 1.05526e-06 0.0005 
647 1 -0.00885787 -0.00998816 0.000499745 -1.95821e-05 2.92699e-05 2.44062e-05 -7.20375e-08 -2.32603e-08 -1.47312e-08 -2.10329e-07 -1.55682e-07 1.36989e-06 0.0005 
542 1 -0.00734107 -0.00994043 0.000499488 -8.4054e-06 -1.9711e-05 1.24139e-05 -1.42948e-07 -2.01574e-08 -1.23509e-08 -2.69183e-07 -1.6372e-07 1.05522e-06 0.0005 
1585 1 -0.00535814 -0.00994248 0.000499455 -3.28199e-05 9.77274e-05 -3.23714e-06 -5.72789e-08 -2.81664e-08 -7.22509e-09 -6.90911e-08 -1.07193e-07 1.09603e-06 0.0005 
2142 1 -0.00325735 -0.00974804 0.000499583 0.000101532 9.54265e-05 -2.62966e-06 4.21401e-09 6.27186e-08 4.76448e-08 4.30149e-08 -5.78931e-08 1.10245e-06 0.0005 
2330 1 -0.00886408 -0.008985 0.000499404 1.34e-05 1.03559e-05 -1.86964e-06 -1.54184e-08 1.60212e-08 -2.53145e-08 -2.36106e-07 -2.25678e-07 1.02027e-06 0.0005 
733 1 -0.00681393 -0.00907537 0.0004996 -5.41241e-05 -7.09387e-05 3.44911e-06 4.66577e-08 6.45653e-08 4.18406e-08 -1.95074e-07 -1.43554e-07 1.11538e-06 0.0005 
1443 1 -0.00575501 -0.00889291 0.000499784 -4.01428e-05 9.31576e-06 1.08165e-05 3.97847e-08 3.75645e-08 7.78366e-09 -7.6311e-08 -1.34601e-07 1.09981e-06 0.0005 
1221 1 -0.00475516 -0.00887489 0.000499615 -1.00678e-05 -9.54497e-05 -9.46141e-07 -7.11307e-08 2.17917e-07 -6.0072e-08 3.2596e-09 -1.23418e-07 1.10107e-06 0.0005 
388 1 -0.00320864 -0.00874556 0.000499758 9.99533e-06 2.49898e-05 5.82869e-06 -1.03393e-07 1.84269e-07 -1.23406e-07 4.58225e-08 -8.98119e-08 1.10112e-06 0.0005 
823 1 -0.00236226 -0.00927797 0.000499716 1.92406e-05 2.06572e-05 1.15123e-05 -8.54294e-08 -1.90158e-08 4.8294e-08 4.87055e-08 -1.05914e-07 1.07389e-06 0.0005 
714 1 -0.00108382 -0.00881191 0.000499476 9.29297e-05 4.60083e-05 1.5759e-05 -1.47311e-07 -1.43589e-07 6.99564e-08 1.6786e-08 -1.60033e-07 9.99504e-07 0.0005 
462 1 -8.5565e-05 -0.00886724 0.000499408 -1.48336e-05 4.48379e-05 2.89222e-05 4.05403e-09 1.42092e-07 4.25852e-08 -5.82005e-08 -5.79345e-08 9.27789e-07 0.0005 
529 1 -0.0102113 -0.00859987 0.000499733 -1.11141e-05 1.80966e-05 1.13511e-06 1.12865e-07 -1.77338e-07 3.37915e-09 5.62425e-08 -3.54452e-07 1.49931e-06 0.0005 
359 1 -0.00934147 -0.00810687 0.000499551 9.00447e-06 -1.3088e-06 1.03965e-05 -1.28162e-08 -5.6401e-08 1.91191e-08 -1.79086e-07 -2.03584e-07 1.07798e-06 0.0005 
1505 1 -0.00808023 -0.00836419 0.000499729 8.7434e-06 4.78414e-05 -1.4795e-05 -1.21215e-07 9.24844e-08 1.70448e-08 -2.61438e-07 -1.24746e-07 1.06823e-06 0.0005 
2252 1 -0.00613926 -0.00796975 0.000499622 -2.87018e-05 4.18372e-06 2.3908e-06 -8.62009e-08 -8.73272e-08 -2.19239e-08 -1.11892e-07 -5.68902e-08 1.14419e-06 0.0005 
2042 1 -0.00232713 -0.00827356 0.000499682 8.25892e-05 -9.2926e-06 -3.30807e-05 -1.39624e-08 -3.97596e-08 -6.69498e-08 1.90137e-08 -1.20039e-07 1.1059e-06 0.0005 
1539 1 -0.0108394 -0.00779305 0.000499652 1.97226e-05 -3.94184e-05 -2.55985e-05 -5.66212e-08 3.39555e-08 -4.00953e-08 1.67635e-07 -2.94485e-07 1.72843e-06 0.0005 
986 1 -0.00813006 -0.0073654 0.000499772 2.42324e-05 6.50607e-05 6.33498e-07 -2.2634e-07 -6.1188e-08 -2.92337e-08 -3.15796e-07 -1.05353e-07 9.82436e-07 0.0005 
1847 1 -0.00710138 -0.00769754 0.000499486 -2.62619e-05 -4.09677e-05 7.28606e-06 -7.8191e-08 8.08211e-08 -8.77574e-09 -2.09279e-07 -5.94155e-08 1.16065e-06 0.0005 
1447 1 -0.00561019 -0.00712125 0.000499781 1.6571e-06 1.03116e-05 -1.12379e-05 -2.6339e-07 -9.20766e-08 6.35303e-08 -5.70569e-08 -1.80475e-09 1.11368e-06 0.0005 
1848 1 -0.00461778 -0.00724446 0.000499662 4.66165e-05 -0.00017338 3.60077e-07 -1.21708e-07 2.09176e-07 -1.04955e-07 -3.84052e-08 8.40442e-08 1.15315e-06 0.0005 
2417 1 -0.00359129 -0.00735318 0.000499648 -3.90811e-05 1.63434e-05 -1.49196e-05 2.15714e-07 9.42933e-08 5.02593e-08 -5.08585e-08 3.1577e-08 1.12954e-06 0.0005 
1462 1 -0.0025924 -0.00730909 0.000499409 -6.59878e-05 -0.00010497 -4.28512e-05 8.13456e-08 1.44903e-07 -3.33042e-08 -4.39372e-08 -6.54977e-08 1.10757e-06 0.0005 
46 1 -0.00131109 -0.00783838 0.000499713 -4.0126e-05 -1.53082e-05 -1.30821e-05 9.26168e-09 1.35364e-07 1.66977e-08 6.89449e-08 -3.21046e-07 1.19901e-06 0.0005 
1432 1 -0.000188591 -0.00787278 0.000499609 -9.03904e-05 1.0359e-05 2.30602e-05 7.37718e-08 9.19248e-08 5.45714e-08 6.0485e-08 -1.45967e-07 1.03934e-06 0.0005 
2195 1 -0.0115902 -0.00660092 0.000499579 -0.000118094 -5.12619e-05 6.27892e-06 9.45689e-08 1.05767e-07 1.57598e-07 3.77491e-07 -1.08932e-07 1.91767e-06 0.0005 
1429 1 -0.0105931 -0.00682388 0.000499798 -3.3518e-05 -4.58568e-05 8.32291e-06 9.47482e-08 -9.78507e-08 -3.80312e-08 2.00525e-07 -1.35693e-07 1.18102e-06 0.0005 
551 1 -0.00959902 -0.00693279 0.000499629 1.65459e-05 -3.57649e-05 1.96253e-05 1.60636e-09 -8.82788e-08 -9.64829e-08 -3.33352e-08 -1.39282e-07 1.08967e-06 0.0005 
490 1 -0.00778266 -0.00634737 0.000499598 6.56368e-05 1.65444e-05 1.16046e-05 -1.49893e-07 1.91401e-08 4.25903e-10 -3.1588e-07 -4.91553e-08 1.04858e-06 0.0005 
1485 1 -0.00646976 -0.00658283 0.000499727 -3.73866e-05 -6.47681e-05 -2.35237e-05 -2.9239e-07 -6.74883e-08 -4.87969e-08 -1.45446e-07 -3.70969e-08 1.11766e-06 0.0005 
74 1 -0.00404981 -0.00639595 0.000499681 -3.55e-05 0.000120926 8.2601e-06 -4.06037e-08 -7.69893e-08 -1.80703e-08 5.54523e-08 1.40835e-07 1.03245e-06 0.0005 
606 1 -0.0109688 -0.00581593 0.0004998 5.92038e-05 -3.98824e-05 3.25908e-07 1.97771e-07 -3.6208e-08 -4.46181e-08 3.17975e-07 -6.62843e-08 1.28597e-06 0.0005 
1293 1 -0.00998814 -0.00601176 0.00049969 0.000123782 -8.0133e-05 6.44223e-05 2.34309e-07 3.87596e-08 6.60838e-08 2.69112e-07 -4.61993e-08 1.13804e-06 0.0005 
1263 1 -0.00885123 -0.00626889 0.000499794 9.43642e-05 -8.61507e-05 1.57621e-06 -5.77154e-08 -5.29626e-08 -1.31985e-09 -1.13701e-07 -1.29458e-07 1.02301e-06 0.0005 
1248 1 -0.00701554 -0.00570619 0.000499747 0.000118532 -4.55999e-06 -2.95824e-05 -4.50196e-08 -1.50579e-08 4.17355e-08 -2.3861e-07 -9.74685e-09 1.07613e-06 0.0005 
1101 1 -0.00560691 -0.00601254 0.000499477 -7.2714e-05 -6.76867e-06 2.64081e-05 -1.78442e-07 -1.52602e-07 4.02322e-08 -2.78567e-08 1.60416e-08 1.11783e-06 0.0005 
817 1 -0.00467817 -0.00561293 0.000499553 1.58355e-06 0.000219786 -1.75447e-05 1.46043e-08 -1.41619e-07 -4.85601e-08 6.66995e-08 1.50258e-07 1.03488e-06 0.0005 
1969 1 -0.00335278 -0.00559075 0.000499519 -2.32138e-05 -2.55815e-05 -4.08099e-06 -5.1512e-08 -3.93305e-08 -7.36249e-08 -1.82224e-07 4.74372e-08 1.0155e-06 0.0005 
266 1 -0.00225094 -0.00609155 0.000499637 -9.44612e-05 -4.76241e-05 -5.19851e-05 4.88239e-08 1.07391e-07 9.96621e-09 -2.76412e-07 -9.31767e-08 1.00833e-06 0.0005 
1477 1 -0.000920794 -0.00625662 0.000499451 -0.000131043 -1.29141e-05 7.72728e-06 1.25031e-07 1.43733e-07 4.60896e-08 5.93737e-08 -1.15247e-07 1.24692e-06 0.0005 
740 1 -9.25882e-05 -0.00558549 0.000499697 -0.000206859 2.56294e-05 3.64917e-05 1.29769e-07 -2.19315e-07 1.62632e-08 2.01008e-07 -3.71055e-08 9.91199e-07 0.0005 
1091 1 -0.0121723 -0.00548364 0.000499471 -9.05922e-06 -1.80493e-06 3.21921e-06 6.04997e-08 -4.68848e-08 3.69147e-08 2.87474e-07 -6.76828e-08 2.01285e-06 0.0005 
900 1 -0.0113629 -0.0048968 0.000499654 1.81313e-05 -5.38525e-05 -8.59814e-06 6.95924e-08 3.03304e-08 1.21231e-08 2.07299e-07 -8.11167e-08 1.08754e-06 0.0005 
1315 1 -0.0103087 -0.00483856 0.000499573 9.0713e-05 -7.90211e-05 6.63488e-06 1.74357e-07 2.85515e-08 5.61587e-09 2.2156e-07 -6.1499e-08 1.12174e-06 0.0005 
53 1 -0.00867362 -0.00528376 0.000499487 0.0001229 -5.42808e-05 9.26178e-06 1.37115e-07 1.39224e-07 1.68749e-08 -7.49589e-09 -1.61932e-07 1.0763e-06 0.0005 
93 1 -0.00731821 -0.00475325 0.000499726 2.43204e-05 1.8096e-05 -2.02058e-05 5.55798e-08 1.04859e-07 -5.5902e-08 -5.74994e-08 -8.63374e-08 1.05337e-06 0.0005 
1403 1 -0.00564991 -0.00495621 0.000499738 5.80747e-05 6.29755e-05 -3.021e-07 5.50571e-08 -1.4293e-07 -5.51683e-09 -8.96955e-10 6.41696e-08 1.07955e-06 0.0005 
2181 1 -0.00395562 -0.00479338 0.000499487 1.16976e-06 2.00328e-05 1.38682e-05 -7.39868e-09 1.70485e-08 -1.99372e-08 -1.45947e-07 9.30491e-08 1.01584e-06 0.0005 
152 1 -0.00257324 -0.00496483 0.000499924 4.69e-05 -9.71615e-05 1.16193e-05 -1.32823e-07 9.16409e-08 -2.33679e-08 -2.25267e-07 4.3153e-08 1.19076e-06 0.0005 
262 1 -0.000969285 -0.00510455 0.000499771 -7.82521e-05 0.000391191 9.07953e-06 2.03197e-07 -1.60573e-07 -1.00653e-07 4.30331e-08 6.85852e-08 1.29198e-06 0.0005 
890 1 -0.0125484 -0.0045572 0.000499747 9.0433e-06 6.86319e-06 1.20115e-05 7.00176e-08 -3.8169e-08 -1.08722e-08 1.13978e-07 -7.71811e-08 1.86726e-06 0.0005 
2 1 -0.010891 -0.00401546 0.000499738 5.94766e-05 -6.56077e-05 9.75784e-06 -1.59633e-08 8.09145e-08 6.06008e-09 8.53812e-08 -1.26567e-07 1.04321e-06 0.0005 
12 1 -0.00938507 -0.00445549 0.000499691 3.92245e-06 -2.17969e-05 -1.84074e-05 1.91978e-08 5.73511e-08 -2.4288e-08 5.27e-08 -1.23647e-07 1.08069e-06 0.0005 
1415 1 -0.00839394 -0.00432385 0.000499576 -1.73198e-05 -2.0684e-05 1.39546e-05 2.72913e-08 6.95316e-08 -2.71486e-08 3.53905e-09 -1.28086e-07 1.06026e-06 0.0005 
2064 1 -0.00595443 -0.00400387 0.000499439 4.12497e-05 -2.80159e-05 -7.17e-07 2.6121e-08 2.0062e-08 2.8414e-08 4.56835e-08 5.82412e-08 1.06956e-06 0.0005 
1452 1 -0.00495458 -0.00401177 0.000499721 4.3638e-05 -0.00014851 9.56226e-06 -1.21524e-07 -2.59602e-07 4.56811e-08 -1.32471e-08 8.6774e-08 1.03049e-06 0.0005 
1459 1 -0.00317652 -0.00416676 0.000499555 -1.91102e-05 2.19076e-05 -4.68563e-06 -5.38598e-08 -6.90154e-08 4.03983e-08 -2.07175e-07 8.86961e-08 1.21095e-06 0.0005 
1507 1 -0.00173911 -0.0044137 0.000499701 -6.39468e-06 -2.32742e-05 9.08091e-06 3.78145e-08 -1.34788e-07 1.51213e-08 -1.07229e-07 1.21685e-07 1.28198e-06 0.0005 
2217 1 -0.00078337 -0.00411992 0.000499642 -0.000112306 0.000225547 2.39212e-06 2.2545e-07 -2.3139e-07 7.73682e-08 1.12266e-07 2.41122e-07 1.32683e-06 0.0005 
982 1 -0.0128855 -0.00347576 0.000499646 0.000236761 0.000132035 4.71592e-08 -2.06201e-07 1.28923e-07 -9.72589e-08 6.95186e-08 -5.71361e-08 1.84746e-06 0.0005 
1544 1 -0.00998384 -0.00359529 0.000499751 1.03537e-05 -7.05002e-06 -9.60358e-06 3.0604e-09 -2.67711e-08 -1.67691e-08 2.32546e-08 -9.90081e-08 1.07297e-06 0.0005 
2007 1 -0.00898694 -0.00351887 0.000499765 -8.94505e-07 5.43856e-06 -7.59119e-06 -2.82863e-08 3.23852e-08 -2.24734e-08 -5.84623e-08 -7.10019e-08 1.10476e-06 0.0005 
1617 1 -0.00781371 -0.00350201 0.000499563 2.93635e-05 -6.43671e-05 1.64109e-05 1.84032e-09 6.10458e-09 9.38686e-08 1.67012e-08 -7.34e-08 1.08662e-06 0.0005 
230 1 -0.00403955 -0.00360525 0.000499691 0.000241817 -0.000285739 1.35243e-05 -2.2446e-07 -2.02086e-07 1.63921e-08 -7.55995e-08 1.01706e-07 1.01574e-06 0.0005 
1067 1 -0.00239505 -0.00354315 0.000499577 -7.86001e-05 0.000144398 -2.59873e-05 -1.8324e-08 -4.04897e-08 5.07717e-08 -1.88613e-07 1.41737e-07 1.13944e-06 0.0005 
9 1 -0.0130636 -0.00247494 0.000499763 -8.85896e-06 3.02695e-05 -1.25703e-05 -1.57684e-08 3.92569e-08 7.3571e-08 1.15461e-07 -4.07129e-08 1.87915e-06 0.0005 
2406 1 -0.0116628 -0.00306332 0.000499479 0.000115634 2.13994e-06 1.42661e-05 -4.1765e-08 4.41206e-08 -6.71541e-08 9.58994e-08 -8.02233e-08 1.10085e-06 0.0005 
178 1 -0.00953577 -0.00268296 0.000499733 -5.12369e-05 -1.70346e-05 -2.07791e-06 -1.11905e-07 -5.523e-08 2.74339e-08 -2.96899e-08 -4.91073e-08 1.10473e-06 0.0005 
1238 1 -0.00853201 -0.00262857 0.000499548 7.13285e-05 -8.07824e-05 6.67165e-06 -7.44737e-08 -6.5737e-08 5.94181e-08 -1.36724e-08 -5.06467e-08 1.10127e-06 0.0005 
1610 1 -0.0070348 -0.00271591 0.000499796 6.81554e-05 -0.000157861 -2.8606e-07 7.39928e-08 -7.85766e-09 4.579e-09 9.12977e-08 -1.31502e-08 1.08671e-06 0.0005 
391 1 -0.00604882 -0.00288282 0.00049979 0.000140826 8.42704e-06 1.80201e-05 4.93202e-08 -1.38478e-07 7.30707e-09 1.83584e-07 3.27585e-08 1.0601e-06 0.0005 
1178 1 -0.00505715 -0.00301707 0.000499783 0.000418283 -0.000113902 -4.89286e-05 1.41499e-07 -5.38432e-07 3.60211e-08 1.18122e-07 5.34007e-08 1.02737e-06 0.0005 
1798 1 -0.00414989 -0.00259017 0.000499755 0.000103303 -5.98503e-05 -1.75157e-05 2.35249e-07 1.41738e-07 -1.947e-08 9.37783e-08 4.37226e-08 1.01215e-06 0.0005 
619 1 -0.00323957 -0.00300532 0.000499764 -0.000202839 0.00020564 1.78809e-05 1.9192e-07 1.12748e-08 1.93112e-08 -1.41807e-07 1.4497e-07 9.82354e-07 0.0005 
38 1 -0.00237299 -0.00250348 0.000499724 0.000153937 -0.000102601 1.79253e-05 -2.84986e-07 3.11205e-07 -5.59858e-08 -2.13047e-07 1.94301e-07 9.70165e-07 0.0005 
736 1 -0.000799807 -0.00294349 0.000499686 3.11989e-05 -9.29755e-05 4.32047e-06 -1.36127e-07 1.10616e-08 -1.35017e-07 -2.00775e-08 9.44412e-08 1.18789e-06 0.0005 
186 1 -0.0124297 -0.00170165 0.000499512 3.64602e-05 -2.30878e-05 -3.52078e-05 -9.8684e-08 5.7177e-08 3.39021e-07 1.91396e-07 -2.24841e-08 1.25554e-06 0.0005 
459 1 -0.0114455 -0.00208758 0.00049971 0.00013014 8.64607e-06 -9.8947e-06 7.87732e-09 1.29945e-07 -3.78197e-08 2.08739e-07 -1.49544e-08 1.1415e-06 0.0005 
866 1 -0.0104736 -0.00233454 0.000499649 -1.09902e-05 -9.36898e-06 1.91066e-05 -1.42638e-07 1.24641e-07 6.39216e-08 9.73145e-08 -6.4799e-08 1.05793e-06 0.0005 
1411 1 -0.00938027 -0.00168234 0.00049961 0.000136929 -0.000139997 1.53672e-05 -8.77863e-08 8.65202e-08 -2.67018e-08 8.75453e-08 -6.96715e-08 9.79412e-07 0.0005 
1278 1 -0.00775151 -0.00200361 0.000499617 0.000110759 -0.000121557 6.28772e-06 -8.54645e-08 4.90816e-10 5.80354e-08 4.45668e-08 -1.70888e-08 1.07183e-06 0.0005 
62 1 -0.00596255 -0.00187626 0.000499757 -9.60608e-08 -7.72631e-05 -1.14413e-05 1.01536e-07 2.12339e-07 4.06586e-08 1.69532e-07 3.99194e-09 1.05242e-06 0.0005 
1669 1 -0.00497293 -0.00202072 0.000499622 -7.03958e-05 -0.000222586 8.35687e-05 -4.5859e-08 2.76451e-08 1.46964e-07 1.4692e-07 -1.8196e-08 9.88805e-07 0.0005 
695 1 -0.00124929 -0.00197647 0.000499652 1.72188e-05 -0.000309794 -2.15653e-05 -1.42951e-07 -2.58862e-07 -1.42057e-07 -8.80354e-08 3.01873e-08 1.17796e-06 0.0005 
1530 1 -0.0132955 -0.00120142 0.000499819 2.77656e-06 1.81256e-05 -7.13759e-06 -4.44747e-08 -7.54464e-08 1.79153e-08 1.55179e-07 3.13124e-08 1.9829e-06 0.0005 
1654 1 -0.010713 -0.00136387 0.000499611 -3.45573e-05 6.52339e-06 -3.87415e-06 -4.37825e-08 1.44605e-07 -9.5414e-08 2.32982e-07 2.98285e-08 1.16585e-06 0.0005 
299 1 -0.00773626 -0.0010035 0.000499747 0.000174453 9.88397e-05 3.02361e-06 -2.13481e-08 8.81696e-09 -1.19278e-08 -5.01744e-10 4.02505e-08 1.00893e-06 0.0005 
98 1 -0.00667558 -0.00106285 0.000499429 -0.000123864 1.17639e-05 -1.77427e-05 -4.24225e-08 -5.27021e-08 -6.8076e-08 1.05671e-07 3.91915e-08 1.02989e-06 0.0005 
1060 1 -0.00391905 -0.00157424 0.00049952 9.83435e-05 -1.68756e-05 -1.53719e-05 -8.75932e-08 9.42182e-08 4.64209e-09 6.89222e-09 -1.34015e-07 9.13832e-07 0.0005 
781 1 -0.00216148 -0.0012585 0.00049976 0.000193028 -0.000148197 -9.7485e-06 -1.9792e-07 2.77148e-07 -4.03316e-08 -2.09792e-07 -1.08666e-07 9.63734e-07 0.0005 
1955 1 -0.00033743 -0.00148135 0.000499592 0.000138372 7.48447e-05 -2.36258e-06 -1.21044e-08 6.9424e-08 -8.44542e-08 1.43807e-08 3.38108e-08 1.12228e-06 0.0005 
1675 1 -0.0124424 -0.000622072 0.00049956 -6.88029e-05 -4.29605e-05 -2.69255e-05 1.6539e-07 1.19752e-07 -7.20126e-08 1.96487e-07 7.80698e-08 1.25447e-06 0.0005 
2125 1 -0.0114423 -5.86417e-05 0.000499679 0.00151302 0.00112414 5.94909e-06 2.55435e-09 -9.26151e-08 -2.8884e-08 6.99995e-08 1.91391e-07 1.11964e-06 0.0005 
2169 1 -0.00953212 -0.000693148 0.0004997 4.65383e-05 -0.000153056 -1.37071e-06 -8.75042e-08 1.70902e-08 -1.20365e-09 1.22279e-07 -4.65575e-08 9.70483e-07 0.0005 
6577 1 -0.00858633 -0.00036892 0.000499599 5.55583e-05 -0.0001573 -5.00528e-07 -7.41696e-08 -1.36988e-07 2.82465e-08 5.76505e-08 1.43475e-08 9.87073e-07 0.0005 
6638 1 -0.00683133 -7.54835e-05 0.000499589 -6.76478e-05 5.86488e-06 -5.22666e-05 -7.03436e-08 -3.6973e-09 -4.16797e-08 5.1856e-08 7.64325e-08 9.60774e-07 0.0005 
1600 1 -0.00576619 -0.000647497 0.000499555 -0.000119751 -5.14176e-05 4.47363e-05 -9.64307e-08 2.44218e-07 6.13665e-08 1.09569e-07 3.90204e-09 1.03644e-06 0.0005 
108 1 -0.00326412 -0.000745209 0.000499619 -0.000278654 7.04853e-05 -7.00508e-06 -3.00002e-08 -3.25796e-07 -6.21248e-08 -1.26054e-07 -1.95453e-07 9.41325e-07 0.0005 
288 1 -0.00178598 -0.00033174 0.000499681 -0.000299301 5.26756e-05 2.37624e-05 -2.3386e-07 2.28361e-07 3.62598e-08 -3.67094e-08 -1.14158e-07 1.02788e-06 0.0005 
1934 1 -0.000387358 -0.000482625 0.000499502 -7.32624e-05 6.1265e-05 2.42e-05 -5.11344e-08 7.99286e-08 4.03185e-08 9.2286e-08 3.77478e-08 1.12418e-06 0.0005 
1180 1 -0.00374313 -0.0128147 0.000926663 -2.00625e-05 3.2232e-05 3.04301e-05 6.91893e-08 3.59158e-08 6.87193e-08 2.23497e-10 6.93981e-08 2.15058e-06 0.0005 
1047 1 -0.00271481 -0.0130717 0.000941107 -1.76529e-05 6.50543e-06 -7.90374e-06 7.42453e-08 1.46439e-08 7.53949e-09 1.51901e-08 4.18582e-08 2.32529e-06 0.0005 
2053 1 -0.00467644 -0.0125044 0.000748159 -5.88762e-05 -1.12905e-05 1.90617e-05 -8.20588e-08 5.26931e-08 1.27351e-07 -6.25105e-08 9.61551e-08 2.0144e-06 0.0005 
427 1 -0.00477436 -0.0110199 0.00117117 -0.000143712 7.8701e-05 7.3394e-05 2.60325e-07 2.38802e-08 -7.2316e-09 -5.07948e-08 4.34277e-08 2.33481e-06 0.0005 
2081 1 -0.00166431 -0.0106887 0.000836111 4.26651e-06 2.96755e-05 -1.99517e-05 1.98028e-07 -4.5225e-08 6.95705e-08 -3.1431e-08 2.82601e-09 1.75752e-06 0.0005 
1375 1 -0.00811429 -0.00948126 0.000935467 1.92756e-05 5.25966e-05 1.06876e-05 -1.14504e-07 -2.25122e-09 -3.22291e-08 -2.92755e-07 -2.15544e-07 1.96045e-06 0.0005 
1658 1 -0.00634974 -0.0100628 0.000530698 -2.60766e-05 -6.03018e-05 -7.26538e-07 -1.50027e-07 6.76156e-08 -2.64159e-08 -1.62786e-07 -1.25875e-07 1.16498e-06 0.0005 
110 1 -0.00455995 -0.0100465 0.00109173 -9.49998e-05 8.36248e-05 -1.1944e-05 -6.94981e-08 -6.95332e-08 2.89366e-08 -3.36912e-08 -3.65714e-08 2.18395e-06 0.0005 
1487 1 -0.00224418 -0.0099242 0.0012534 3.52195e-05 8.40984e-06 2.17242e-05 1.8794e-07 4.6359e-08 1.11405e-07 -2.93267e-08 -4.96628e-08 2.39153e-06 0.0005 
2090 1 -0.00144454 -0.00973366 0.0006391 4.05998e-05 4.58256e-05 -5.21621e-05 -8.14535e-08 -1.7154e-07 -2.22288e-07 -3.12443e-09 -8.05675e-08 1.21213e-06 0.0005 
2461 1 -0.00958186 -0.0092966 0.00112102 8.49579e-05 -7.44244e-05 4.16042e-05 4.89731e-08 7.59049e-08 1.40313e-08 -8.07145e-08 -2.6714e-07 2.46371e-06 0.0005 
1750 1 -0.00396856 -0.00924687 0.000992 5.20127e-05 2.41451e-06 2.11564e-07 -1.18875e-07 -8.93431e-09 -1.60647e-07 4.71478e-08 -1.16101e-07 2.17372e-06 0.0005 
243 1 -0.0069647 -0.00838789 0.00120981 2.06567e-05 -1.72233e-05 -1.62622e-05 -1.33352e-07 1.51846e-07 -1.56248e-09 -1.95298e-07 -3.28064e-08 3.12194e-06 0.0005 
948 1 -0.00518271 -0.00801795 0.000786357 -4.07947e-05 -0.000101877 -2.05379e-05 -7.00602e-08 2.44637e-07 -1.90535e-07 -5.20101e-08 -1.09315e-08 1.74914e-06 0.0005 
793 1 -0.00403103 -0.00822268 0.000723158 -3.12841e-05 9.29945e-06 -2.31559e-05 2.04498e-08 2.74711e-07 -9.57334e-08 -1.85619e-08 -1.73879e-08 1.44307e-06 0.0005 
1694 1 -0.00170151 -0.00853401 0.0012347 8.15904e-05 4.35324e-06 -5.24616e-05 -2.7566e-07 -1.63575e-08 9.49531e-08 -1.55126e-08 -1.65308e-07 2.36788e-06 0.0005 
842 1 -0.0100259 -0.00764184 0.00106062 -3.50599e-05 -2.78389e-05 -4.21444e-05 -1.06267e-07 -5.4357e-09 -1.039e-08 -4.00752e-08 -2.62022e-07 2.23334e-06 0.0005 
239 1 -0.00900791 -0.00741868 0.0011432 6.68015e-05 3.01143e-05 -7.52547e-06 -1.51546e-07 -1.46035e-07 6.95484e-08 -2.78355e-07 -1.62995e-07 2.38964e-06 0.0005 
13 1 -0.00304774 -0.00786828 0.0011916 -4.96162e-05 -8.07882e-05 -4.86503e-05 -3.52255e-08 1.77007e-07 -6.76504e-08 -2.58277e-08 -4.79935e-08 2.52289e-06 0.0005 
1059 1 -0.00717637 -0.0067426 0.00118918 4.12864e-05 -9.24969e-06 -1.0634e-05 -1.03039e-08 1.37537e-07 -5.48591e-08 -3.04434e-07 -4.70142e-08 2.44227e-06 0.0005 
830 1 -0.00488221 -0.00642248 0.00105271 -5.40924e-05 -0.000106713 -7.57324e-06 -5.08738e-08 5.39231e-09 5.90102e-08 4.63781e-08 7.79121e-08 2.12597e-06 0.0005 
515 1 -0.00310567 -0.00650878 0.000808225 -4.82427e-05 -6.56198e-05 -9.04294e-06 1.42343e-07 1.19406e-07 -8.03043e-09 -2.03011e-07 -2.15781e-08 1.5782e-06 0.0005 
2336 1 -0.00167709 -0.0069091 0.000542022 -8.73745e-05 -2.54652e-05 -5.68777e-05 3.79109e-08 2.61526e-07 -4.45765e-08 -5.21979e-08 -1.40727e-07 1.10891e-06 0.0005 
2421 1 -0.000545538 -0.00706058 0.000960328 3.47565e-05 6.59974e-05 9.02387e-05 1.9132e-07 1.98119e-07 1.49999e-09 8.09526e-08 -2.26131e-07 2.20944e-06 0.0005 
1645 1 -0.00625556 -0.00560495 0.00114149 7.06831e-07 1.27234e-05 0.000168045 -1.08584e-07 1.41075e-07 4.24477e-08 -4.94853e-08 -2.5946e-08 2.4496e-06 0.0005 
100 1 -0.00401414 -0.0056905 0.00124267 -9.30614e-05 0.000165992 -3.95199e-05 8.26392e-08 -1.94137e-08 -6.48575e-08 7.31957e-08 1.52878e-07 2.46578e-06 0.0005 
2208 1 -0.00152762 -0.00570543 0.00107163 -0.000161458 0.000207411 -0.000281589 1.61354e-07 1.70861e-07 1.55699e-07 -8.11981e-08 -3.53031e-08 2.43641e-06 0.0005 
220 1 -0.00939877 -0.00552468 0.00114381 0.000201067 -0.000141272 9.8777e-05 1.75607e-07 3.75924e-08 2.31011e-08 1.54783e-07 -1.12532e-07 2.4717e-06 0.0005 
1211 1 -0.0078447 -0.00549406 0.00101684 0.000137508 9.76747e-06 3.09072e-06 1.24141e-07 9.51194e-08 -1.1714e-08 -1.66512e-07 -9.24122e-08 2.0145e-06 0.0005 
565 1 -0.00329518 -0.00481955 0.00124957 5.03332e-05 8.56288e-06 -2.20118e-05 -1.17611e-07 -2.21014e-07 -3.92974e-08 -1.34841e-07 6.37061e-08 2.55572e-06 0.0005 
2300 1 -0.0118201 -0.00397941 0.000867143 5.44025e-05 -4.68595e-06 4.60732e-05 -6.93292e-08 9.17497e-08 -2.07394e-08 8.2675e-08 -8.10746e-08 1.99264e-06 0.0005 
1986 1 -0.00646912 -0.00462991 0.00108463 0.000105972 -5.1759e-05 7.78675e-05 -3.17248e-08 2.26764e-07 -7.48016e-08 -2.05461e-08 1.67136e-08 2.23876e-06 0.0005 
1236 1 -0.00460519 -0.00460428 0.00123521 -9.39419e-05 -0.000278577 5.62689e-05 -1.99735e-07 -1.99797e-07 -5.96958e-08 -9.10598e-08 8.37577e-08 2.44008e-06 0.0005 
483 1 -0.00251685 -0.00419195 0.00125034 -0.000111403 0.000215862 2.64623e-05 -9.1203e-08 -9.86014e-08 5.92e-08 -2.76434e-07 6.03471e-08 3.00667e-06 0.0005 
696 1 -0.00687094 -0.00370419 0.000763481 -1.60737e-05 -0.000257712 2.95374e-05 1.42975e-08 1.09812e-07 6.72797e-08 3.58935e-08 -2.78347e-08 1.53316e-06 0.0005 
704 1 -0.00148578 -0.00354033 0.000915287 -9.35613e-05 8.79238e-06 3.27704e-05 1.17474e-07 -1.38361e-07 -2.51048e-07 -2.5203e-08 1.24474e-07 2.05232e-06 0.0005 
2160 1 -7.59669e-05 -0.00355135 0.000918895 3.27419e-06 -2.37619e-05 6.99549e-05 3.09666e-07 1.32366e-07 6.59287e-08 -3.74605e-09 9.66581e-08 1.93704e-06 0.0005 
532 1 -0.0107935 -0.00314738 0.000985869 8.51013e-05 -9.17868e-05 1.18558e-05 -4.51023e-08 6.69575e-08 -7.92132e-11 2.54567e-08 -1.40447e-07 2.08039e-06 0.0005 
1201 1 -0.00782097 -0.00277582 0.00118682 0.000296499 0.00016689 -0.000194118 -1.54291e-07 -1.45782e-07 1.94626e-07 2.65545e-08 -5.36687e-08 2.58881e-06 0.0005 
2224 1 -0.00855693 -0.00179764 0.00105493 0.000129352 -7.41536e-05 -2.07771e-05 -1.20788e-07 2.2317e-08 -3.39806e-08 1.49948e-08 -4.1548e-08 2.01369e-06 0.0005 
1596 1 -0.0069722 -0.00180902 0.00109478 0.000117949 -6.19e-05 -9.06774e-06 8.26528e-08 -5.06324e-08 -3.93419e-08 6.99344e-08 1.02576e-08 2.08503e-06 0.0005 
2261 1 -0.00297868 -0.00176014 0.000783098 0.000136799 -2.14964e-05 -0.000141256 -5.99514e-08 2.80663e-07 4.73449e-08 -1.68097e-07 -1.66504e-08 1.49486e-06 0.0005 
78 1 -0.0116461 -0.00115228 0.000789684 -2.74436e-05 2.4487e-05 -8.41914e-05 2.67541e-08 1.54311e-07 -3.45577e-08 2.84329e-07 6.32149e-08 1.87322e-06 0.0005 
367 1 -0.0100574 -0.00114327 0.00122155 4.87417e-05 -0.00016109 -1.26562e-05 -9.71887e-08 6.1588e-08 4.88657e-08 2.07551e-07 -3.80364e-08 2.52331e-06 0.0005 
5 1 -0.00506343 -0.00115719 0.000995005 -0.000164947 -0.000203705 -2.84321e-05 -1.11844e-07 2.75433e-07 1.51633e-07 1.05042e-07 -1.38647e-07 1.85709e-06 0.0005 
1357 1 -0.00116752 -0.00103987 0.000839563 -0.000213189 -0.000163162 -0.000435866 -1.38889e-07 -2.00659e-07 -2.51292e-08 -7.08655e-08 -6.17695e-08 1.87626e-06 0.0005 
967 1 -0.0133487 -0.000204714 0.00055956 -1.20475e-05 4.3351e-05 -1.83119e-05 4.62781e-08 -5.83992e-09 1.67034e-08 1.63289e-07 1.92262e-07 2.07705e-06 0.0005 
2095 1 -0.0104792 -0.000400796 0.000630772 3.34442e-05 -1.10954e-05 1.192e-05 -1.46445e-07 1.27381e-07 -2.57524e-08 1.41514e-07 6.74009e-08 1.34632e-06 0.0005 
42 1 -0.00418642 -0.000690733 0.000883427 -0.000342125 6.51208e-06 -0.000282162 -2.59521e-08 -4.60327e-08 1.9137e-08 3.91481e-08 -3.0981e-07 1.55523e-06 0.0005 
548 1 -0.00252217 -0.000549173 0.00114042 -0.000292983 -0.000182614 6.093e-05 -2.12486e-07 3.88858e-08 2.99765e-08 -1.61357e-07 -1.78087e-07 2.32946e-06 0.0005 
805 1 -0.00292005 -0.0130133 0.00191785 -0.000348956 -0.000155208 -0.000100394 6.00811e-08 -2.94471e-07 -2.31792e-07 -3.27902e-08 4.52333e-08 3.72134e-06 0.0005 
643 1 -0.00198636 -0.0132017 0.00161318 -0.000111518 3.28964e-05 0.000124293 -4.84204e-08 1.64213e-08 1.94239e-07 -3.30934e-10 -6.59935e-09 3.33027e-06 0.0005 
1951 1 -0.000906455 -0.0133192 0.0013075 -3.641e-05 1.10701e-05 1.38983e-05 2.77397e-07 -3.91658e-10 -1.3763e-07 6.46768e-09 -1.43996e-08 2.80774e-06 0.0005 
1971 1 -0.000137253 -0.0126717 0.001259 9.39331e-05 -2.33402e-06 -4.79625e-05 9.54123e-08 1.86269e-07 1.88549e-07 -6.38585e-08 -2.94331e-08 2.31805e-06 0.0005 
2416 1 -0.000186629 -0.0133481 0.00200078 3.43123e-05 -1.43201e-05 -6.14957e-05 1.04624e-07 5.66849e-08 -3.4104e-08 -9.92456e-08 -1.37867e-08 3.67233e-06 0.0005 
2017 1 -0.00570837 -0.0119585 0.00127167 -2.37539e-05 -9.26503e-05 -2.84216e-05 -1.08048e-07 -1.66245e-07 -1.79569e-07 -1.74106e-07 6.95102e-08 2.78056e-06 0.0005 
527 1 -0.00435911 -0.0126183 0.00168944 -6.36189e-05 1.08533e-05 2.30277e-05 6.17216e-08 -1.33869e-07 1.42929e-07 -3.80078e-08 8.3472e-08 3.27995e-06 0.0005 
2327 1 -0.00336344 -0.0120758 0.00148302 8.94416e-05 0.000153271 -0.000121018 2.47808e-07 1.24189e-07 -2.22277e-07 -8.52378e-09 1.08423e-07 2.96391e-06 0.0005 
886 1 -0.00238347 -0.0122683 0.00143526 4.58756e-05 2.64558e-05 -0.000122533 1.31551e-07 7.74703e-08 7.48792e-08 -9.41002e-09 5.17149e-08 2.85343e-06 0.0005 
848 1 -0.00141755 -0.0124605 0.00125776 -4.3232e-05 -3.56766e-05 8.61562e-05 7.68521e-09 3.59229e-08 1.61157e-07 2.10007e-08 -5.45509e-09 2.72917e-06 0.0005 
125 1 -0.000674913 -0.011942 0.00168114 0.000126697 -1.31177e-05 -8.92584e-05 8.56538e-08 1.15141e-07 1.724e-07 -8.88678e-08 -1.34973e-08 3.28557e-06 0.0005 
2456 1 -0.0068361 -0.0114671 0.00140268 -0.000104819 4.11893e-05 5.55862e-05 1.5375e-07 -1.5774e-08 4.06106e-08 -2.06921e-07 7.07313e-08 2.94535e-06 0.0005 
461 1 -0.0054012 -0.0112562 0.00191373 9.82235e-05 5.00415e-05 -0.000183741 1.33919e-07 2.52976e-07 -7.18496e-07 -1.07298e-07 6.79315e-08 3.72371e-06 0.0005 
2263 1 -0.0044776 -0.0116463 0.00189176 -6.07591e-05 7.44838e-06 6.70422e-05 -6.41576e-08 -1.32336e-07 -2.53182e-08 -2.29574e-08 9.64836e-08 3.61615e-06 0.0005 
1851 1 -0.00379965 -0.0111921 0.00131386 -0.000123769 -4.34674e-06 -7.89721e-05 6.0536e-08 -1.79965e-07 -3.99474e-08 8.81483e-09 1.31457e-07 2.78255e-06 0.0005 
947 1 -0.00270824 -0.0113261 0.00135484 -4.54731e-05 1.47246e-05 5.18763e-05 8.02032e-08 1.2179e-07 1.72945e-07 -1.42808e-08 9.70903e-08 2.79812e-06 0.0005 
2112 1 -0.00172398 -0.0115182 0.00139081 2.67704e-05 9.62407e-06 -4.06076e-05 1.93975e-07 1.69713e-08 4.28426e-08 -4.32647e-08 3.8926e-08 2.8331e-06 0.0005 