ITEM: TIMESTEP
90000
ITEM: NUMBER OF ATOMS
10000
ITEM: BOX BOUNDS mm mm mm
-0.015 0.015
-0.015 0.015
-0.001 0.0554
ITEM: ATOMS id type x y z vx vy vz fx fy fz f_dragforce[1] f_dragforce[2] f_dragforce[3] radius 
1359 1 -0.0014923 -0.0132662 0.00049983 0.000695369 0.000177111 1.3312e-06 3.49403e-07 1.85039e-07 -4.61802e-08 3.66985e-07 1.89183e-07 1.92802e-06 0.0005 
637 1 -0.00304511 -0.012239 0.000499467 0.000596892 1.90028e-05 5.8244e-05 8.78161e-08 -3.48865e-07 -2.47031e-07 -4.04714e-08 2.27562e-07 1.26041e-06 0.0005 
1496 1 -0.0020671 -0.0124476 0.000499694 0.000196136 0.00045481 4.54354e-05 -4.00629e-07 -2.56105e-07 -9.01471e-08 2.80307e-07 2.61878e-07 1.35341e-06 0.0005 
502 1 -0.000774556 -0.012522 0.000499436 -1.86695e-05 0.000227369 3.41869e-05 1.00077e-07 -6.02492e-07 -5.59229e-07 4.9004e-07 1.95505e-07 1.22968e-06 0.0005 
1195 1 -0.00706896 -0.011105 0.000499568 -0.000367773 7.05114e-05 4.44289e-05 -4.52249e-07 -1.45976e-07 -3.04965e-07 -5.63948e-07 -5.68557e-08 1.47188e-06 0.0005 
1356 1 -0.00631517 -0.011762 0.000499691 -1.59874e-05 8.31215e-05 -1.36667e-05 -5.37283e-07 2.29907e-08 5.19547e-07 -5.36623e-07 1.20592e-08 1.64692e-06 0.0005 
939 1 -0.00515033 -0.0116564 0.000499618 8.31294e-05 2.34996e-05 -1.48634e-05 4.06285e-08 1.91558e-07 1.51903e-07 -4.04491e-07 5.334e-08 1.24696e-06 0.0005 
1758 1 -0.00415033 -0.0116518 0.00049973 -0.000132664 0.000166206 -7.08096e-06 -7.13103e-07 -5.65473e-09 -5.48725e-08 -2.24163e-07 1.55485e-07 1.1632e-06 0.0005 
656 1 -0.00321897 -0.0112548 0.000499829 4.50605e-05 -9.72274e-05 -2.73118e-06 -3.23004e-07 -3.01771e-07 -1.97091e-07 7.45011e-08 2.87973e-07 1.20412e-06 0.0005 
758 1 -0.00220554 -0.0114543 0.000499797 0.000477077 -8.00715e-05 3.82575e-05 1.54116e-07 1.99265e-07 4.26627e-08 2.05158e-07 2.5033e-07 1.24442e-06 0.0005 
319 1 -0.00109902 -0.0115713 0.000499805 -0.000309035 0.000467592 -1.10769e-06 2.9007e-07 1.27145e-07 1.98673e-08 3.36225e-07 1.68802e-07 1.26546e-06 0.0005 
511 1 -1.16506e-05 -0.0111104 0.000499557 0.000254017 0.000154784 -0.000224981 -1.71373e-06 -1.19815e-06 1.07196e-07 4.30311e-07 -5.28091e-08 1.27377e-06 0.0005 
1144 1 -0.00802801 -0.0106667 0.000499632 0.000228321 -9.82336e-05 0.000121517 1.03844e-07 -5.6247e-08 -8.32048e-08 -5.45324e-07 -6.68507e-08 1.45263e-06 0.0005 
353 1 -0.005777 -0.0108774 0.000499571 -2.68712e-05 -0.00012738 -3.95048e-05 -8.32174e-08 1.30403e-07 1.52368e-07 -4.48538e-07 -7.82163e-08 1.12926e-06 0.0005 
1818 1 -0.00394067 -0.0105633 0.000499548 0.000278582 0.000148986 5.80901e-05 -1.79722e-07 -3.52874e-07 -1.22135e-07 -1.42493e-08 2.13395e-07 1.20192e-06 0.0005 
1873 1 -0.0025844 -0.0104825 0.000499587 6.45755e-05 -9.53382e-05 5.90341e-05 2.88173e-07 -5.32859e-07 6.80076e-09 1.5075e-07 2.10668e-07 1.18091e-06 0.0005 
2211 1 -0.000753522 -0.0104403 0.000499415 0.000379059 0.000388436 8.8453e-05 6.88507e-07 -7.50714e-08 7.06464e-08 3.01561e-07 1.69121e-08 1.26857e-06 0.0005 
647 1 -0.00885836 -0.00998784 0.000499749 5.39989e-05 -2.09627e-05 -2.2983e-05 1.2021e-07 4.00533e-08 -1.69183e-07 -4.13224e-07 -1.71581e-07 1.42157e-06 0.0005 
542 1 -0.00734115 -0.00994041 0.000499559 0.000204233 0.000210719 1.65862e-05 2.25221e-07 -3.05287e-07 -5.22652e-07 -6.88423e-07 -2.42963e-07 1.18706e-06 0.0005 
1585 1 -0.00535735 -0.00993877 0.000499558 0.000370663 -0.000125446 5.74109e-05 9.43352e-08 3.04728e-07 2.08553e-08 -2.86225e-07 -1.34792e-07 1.13168e-06 0.0005 
2142 1 -0.00325276 -0.00973916 0.000499611 0.000316346 0.000420367 -3.85638e-05 2.13357e-07 -4.75538e-08 3.65977e-08 3.53445e-08 1.38129e-07 1.20075e-06 0.0005 
2090 1 -0.0014757 -0.00974219 0.000499813 -4.40499e-05 -0.000286171 -6.02169e-07 1.97823e-07 -1.03845e-07 -2.76891e-09 2.04695e-07 -8.74856e-08 1.29156e-06 0.0005 
2330 1 -0.0088643 -0.00898535 0.000499189 6.54063e-05 -7.28073e-06 6.43119e-05 1.73595e-07 -1.2458e-07 1.202e-07 -5.51724e-07 -3.30575e-07 1.02029e-06 0.0005 
733 1 -0.00681478 -0.00907988 0.000499757 -0.000893134 -0.000490888 6.57593e-05 -1.99626e-07 -1.11332e-07 -4.41691e-07 -5.35267e-07 -2.28711e-07 1.1812e-06 0.0005 
1443 1 -0.00575259 -0.00889847 0.00049958 -5.48983e-05 -0.000199193 -1.69353e-05 -6.39782e-07 2.54911e-07 -3.81448e-07 -1.7259e-07 -1.02153e-07 1.16679e-06 0.0005 
1221 1 -0.0047532 -0.0088706 0.000499608 2.42884e-05 0.000249321 9.00215e-05 -1.666e-07 2.75529e-08 1.96207e-07 3.75595e-08 -3.01277e-10 1.16624e-06 0.0005 
388 1 -0.00320935 -0.00874027 0.000499775 -0.000500053 0.000697285 4.58407e-05 3.32945e-07 2.51685e-07 -1.71206e-07 9.79365e-09 1.09434e-07 1.20605e-06 0.0005 
823 1 -0.00235996 -0.00927067 0.000499688 0.0006385 -8.16209e-05 -2.36726e-05 1.09976e-07 -1.65655e-07 -2.73547e-07 7.34722e-08 4.82933e-08 1.21797e-06 0.0005 
714 1 -0.0010859 -0.00881602 0.000499606 0.000261435 -0.000413461 -1.14764e-05 2.57208e-07 -8.76132e-08 1.33413e-07 1.76015e-07 -1.76716e-07 1.29145e-06 0.0005 
462 1 -8.74317e-05 -0.00886788 0.000499479 0.000386219 3.81155e-05 -9.30741e-05 1.0319e-07 -3.8081e-07 -4.69963e-07 2.80967e-07 -1.90864e-07 1.19652e-06 0.0005 
529 1 -0.0102108 -0.00860058 0.000499734 2.11592e-05 -8.2349e-05 1.98e-06 -2.37393e-07 2.37057e-07 -2.14171e-08 9.1102e-08 -4.3595e-07 1.45984e-06 0.0005 
359 1 -0.00934149 -0.00810706 0.000499551 -2.04196e-05 -0.000133827 7.44836e-05 -1.01104e-08 -1.91499e-07 1.20312e-07 -4.60262e-07 -3.16452e-07 1.02196e-06 0.0005 
1505 1 -0.00808152 -0.00836311 0.000499743 9.60684e-05 5.84649e-05 -6.53858e-05 -5.11871e-09 2.71965e-07 -1.04708e-07 -6.77043e-07 -2.72248e-07 9.98958e-07 0.0005 
2252 1 -0.00614557 -0.00797415 0.000499774 -0.000684567 -0.000150246 -6.22207e-05 7.47111e-07 -8.84522e-07 -6.56545e-07 -2.14822e-07 2.42194e-08 1.18474e-06 0.0005 
2042 1 -0.00232623 -0.00827142 0.000499782 0.000288036 -0.000176433 -7.58039e-05 9.03891e-07 1.76485e-07 -3.28669e-07 -5.11085e-08 -7.66319e-08 1.24929e-06 0.0005 
1539 1 -0.0108397 -0.00779286 0.000499689 -5.057e-06 5.34836e-05 5.08894e-05 1.19875e-07 -6.91766e-08 5.44742e-08 2.11355e-07 -3.20478e-07 1.65698e-06 0.0005 
986 1 -0.00814589 -0.00736518 0.000499779 -0.000275804 3.85222e-05 -4.21316e-05 -1.98275e-07 4.52073e-08 -9.47331e-08 -8.28938e-07 -2.57151e-07 1.08649e-06 0.0005 
1847 1 -0.00710722 -0.00769797 0.000499512 -0.000498689 -0.00035987 -3.22645e-05 -4.19435e-08 3.352e-08 -1.69868e-07 -4.58131e-07 -5.72537e-08 1.24037e-06 0.0005 
1447 1 -0.00561299 -0.00712075 0.000499777 -0.000118242 -0.000481603 2.39979e-05 -5.73971e-08 -3.82386e-07 -1.43099e-07 -6.32372e-08 3.66263e-07 1.2612e-06 0.0005 
1848 1 -0.00461884 -0.00722851 0.000499512 9.43047e-05 2.95672e-05 0.00013836 -2.97686e-08 1.14096e-07 -5.24017e-07 4.3843e-08 4.68453e-07 1.35361e-06 0.0005 
2417 1 -0.00359319 -0.00734133 0.000499742 -4.14665e-05 0.00135969 4.4016e-05 2.49769e-07 2.98374e-07 -3.99795e-07 -1.09954e-07 2.86916e-07 1.30611e-06 0.0005 
1462 1 -0.0025938 -0.00730818 0.000499452 0.000114149 -0.000171485 6.32518e-05 -1.4589e-07 1.37349e-07 -1.50787e-07 -1.83963e-07 -6.06818e-09 1.25922e-06 0.0005 
46 1 -0.00131246 -0.00784198 0.000499734 -3.06359e-05 -7.17291e-05 -0.000315384 2.85669e-07 -1.48057e-06 1.17597e-06 8.31287e-08 -2.07065e-07 1.28404e-06 0.0005 
1432 1 -0.000190589 -0.00787363 0.000499598 0.000231337 0.000160092 -6.69156e-05 -9.13508e-07 -2.67722e-07 -3.99381e-07 3.38623e-07 -2.10413e-07 1.29586e-06 0.0005 
2195 1 -0.0115973 -0.00660488 0.000499529 0.000104962 8.82526e-05 1.54311e-05 2.03481e-07 1.44611e-07 7.57081e-08 4.39365e-07 2.9291e-08 1.80279e-06 0.0005 
1429 1 -0.0105929 -0.00682382 0.000499797 -4.71202e-05 6.59211e-05 -3.08312e-06 3.10731e-07 -3.11538e-08 -1.05734e-07 1.93137e-07 -8.71946e-08 1.05523e-06 0.0005 
551 1 -0.00959896 -0.00693344 0.000499638 3.43724e-05 -1.62211e-05 -1.5651e-05 1.61534e-07 1.16401e-07 8.46564e-08 -2.83022e-07 -1.79744e-07 1.05154e-06 0.0005 
1263 1 -0.00880284 -0.00632836 0.000499803 -0.00112384 0.00147225 -9.0039e-06 7.81688e-08 3.96406e-08 -2.70346e-08 -5.19619e-07 -1.09966e-07 1.11701e-06 0.0005 
490 1 -0.00778639 -0.00634488 0.000499467 -0.000269211 8.83017e-05 4.79568e-05 -3.58309e-07 -1.86249e-07 2.79974e-07 -5.82316e-07 1.70238e-08 1.11377e-06 0.0005 
1485 1 -0.00647187 -0.00658348 0.000499801 -3.69606e-05 4.41427e-05 -2.78818e-05 -6.01038e-08 1.69092e-07 2.95781e-07 -1.01615e-07 2.04459e-07 1.2401e-06 0.0005 
74 1 -0.00405473 -0.00640309 0.000499614 0.000149274 8.47035e-05 1.87664e-05 1.21845e-07 2.46764e-07 -6.04454e-09 -7.29978e-08 1.03924e-06 1.16452e-06 0.0005 
606 1 -0.0109675 -0.0058195 0.000499797 5.25492e-05 4.34044e-05 1.55863e-05 -2.26199e-07 -2.34453e-07 -1.81819e-08 3.12618e-07 9.32597e-08 1.23374e-06 0.0005 
1293 1 -0.00998627 -0.00601177 0.000499621 -9.35756e-06 -5.16401e-06 5.08668e-05 -1.90694e-08 -5.36722e-08 9.81368e-08 1.59064e-07 4.19944e-08 1.16184e-06 0.0005 
1248 1 -0.00701252 -0.00570892 0.000499722 6.44257e-05 -0.00013121 2.52024e-05 -1.16122e-08 -5.14339e-07 -1.64944e-07 -1.54018e-07 1.80651e-07 1.14088e-06 0.0005 
1101 1 -0.00560759 -0.00601713 0.000499355 -3.46936e-05 -0.000477725 5.30305e-05 -3.97061e-07 -3.68647e-07 3.53116e-08 1.48866e-07 4.27904e-07 1.24053e-06 0.0005 
817 1 -0.0046781 -0.00561715 0.000499571 0.000122256 0.000220527 -1.30975e-05 2.23965e-07 6.1645e-07 -3.27766e-08 9.4043e-08 1.04731e-06 1.17224e-06 0.0005 
1969 1 -0.00335254 -0.00559059 0.00049951 0.000145169 -2.51241e-05 7.06656e-05 1.53816e-07 1.25994e-07 -6.08193e-07 -5.84964e-07 4.5548e-07 1.14345e-06 0.0005 
266 1 -0.00225375 -0.00609612 0.000499614 0.000119175 -0.000111241 5.55571e-05 -8.2662e-07 -4.79123e-08 -9.30544e-07 -5.77944e-07 -1.09049e-07 1.12938e-06 0.0005 
1477 1 -0.000926924 -0.00625225 0.000499502 0.00018549 0.000224486 -9.96917e-05 -5.26475e-07 3.42838e-07 -5.38114e-07 1.61385e-07 -1.82978e-07 1.28232e-06 0.0005 
740 1 -7.9544e-05 -0.00559723 0.000499791 0.000169009 0.000130925 -2.7525e-05 9.32882e-08 3.23106e-07 -8.4619e-08 4.53408e-07 -2.53802e-07 1.04542e-06 0.0005 
1091 1 -0.0121721 -0.005484 0.000499499 -1.20554e-05 3.38711e-05 2.56565e-05 2.21953e-08 7.34477e-09 4.83744e-08 2.90368e-07 1.67535e-07 1.83972e-06 0.0005 
900 1 -0.0113606 -0.00490018 0.000499658 2.67348e-05 -2.96447e-05 4.32825e-05 -5.20368e-08 1.54847e-07 -1.02941e-07 2.23582e-07 1.5868e-07 8.98015e-07 0.0005 
1315 1 -0.0103096 -0.00483157 0.000499525 -6.17613e-05 -1.86034e-05 -1.31619e-06 1.00501e-07 7.00073e-08 9.66454e-08 1.4302e-07 1.33286e-07 1.13432e-06 0.0005 
53 1 -0.00866964 -0.00528383 0.000499416 6.93736e-05 -2.8337e-05 6.19494e-05 -9.28183e-08 -6.82354e-08 3.83403e-08 -2.45733e-07 1.29763e-07 1.16749e-06 0.0005 
1403 1 -0.00565098 -0.0049612 0.000499657 -0.000106727 -0.000151222 -3.34585e-05 1.25244e-07 -5.37034e-08 1.60454e-07 5.35066e-07 4.2312e-07 1.18737e-06 0.0005 
2181 1 -0.003965 -0.00480089 0.0004995 -0.000801204 -0.000707197 3.02405e-05 4.58245e-07 9.99822e-08 -9.65213e-08 -4.25791e-07 4.2842e-07 8.65506e-07 0.0005 
152 1 -0.0025722 -0.00496581 0.000499848 -0.000311772 0.00047196 -2.92974e-05 2.29573e-07 -3.2416e-07 -1.11263e-07 -1.04877e-06 6.82349e-08 1.15235e-06 0.0005 
262 1 -0.00096482 -0.00510213 0.000499596 0.000126664 -0.000192202 -2.43648e-06 -7.88712e-07 -2.00904e-07 -9.34994e-07 -9.8982e-08 -1.09745e-07 1.27573e-06 0.0005 
890 1 -0.0125481 -0.00455753 0.000499772 -4.00045e-05 1.944e-06 2.07338e-05 -6.48146e-08 2.86758e-09 9.33361e-08 3.76938e-08 2.19379e-07 1.63656e-06 0.0005 
2 1 -0.0108904 -0.00401778 0.000499616 -4.45597e-05 -4.04457e-05 -4.50091e-07 8.09935e-08 2.17242e-08 1.24013e-07 2.85695e-08 1.47014e-07 1.0136e-06 0.0005 
12 1 -0.00938104 -0.00446093 0.000499549 -3.57339e-05 6.99485e-05 4.39749e-05 3.07355e-08 -7.59682e-08 9.20826e-08 -1.22404e-07 1.09852e-07 1.14694e-06 0.0005 
1415 1 -0.00839073 -0.00432365 0.00049963 3.13067e-05 3.11568e-05 3.05018e-05 2.68858e-07 -3.23784e-07 -9.00452e-08 -1.54558e-07 1.35556e-07 1.15833e-06 0.0005 
93 1 -0.00727926 -0.00462053 0.000499772 9.3864e-05 -6.79019e-05 5.84512e-05 4.45402e-07 -4.46033e-07 -1.27251e-07 7.96227e-08 2.38868e-07 1.20456e-06 0.0005 
2064 1 -0.00595395 -0.00400848 0.00049926 4.29201e-05 -0.000122197 0.000135807 2.93198e-07 -2.92428e-07 3.33139e-07 8.06653e-07 1.43169e-07 1.16791e-06 0.0005 
1452 1 -0.00495519 -0.00404982 0.000499724 2.61138e-05 -0.000446954 -3.3788e-05 -2.68886e-07 7.61405e-07 -2.60629e-08 1.41312e-07 1.8938e-07 9.33656e-07 0.0005 
1459 1 -0.00319023 -0.00416783 0.000499738 -0.000664622 0.000312141 9.68011e-05 1.5734e-06 -7.0567e-07 -2.76961e-07 -1.13993e-06 2.35637e-08 1.11792e-06 0.0005 
1507 1 -0.00173746 -0.00441588 0.000499698 -0.000386598 0.000566995 -0.000136228 -2.10556e-07 1.87266e-07 -2.2539e-08 -7.98887e-07 -3.89182e-08 1.21536e-06 0.0005 
2217 1 -0.000782785 -0.00411926 0.000499549 -0.000265547 -0.000187196 0.00013686 -6.87845e-07 3.1498e-07 2.93653e-07 -5.36761e-08 -2.06328e-08 1.27832e-06 0.0005 
982 1 -0.0128334 -0.00344566 0.000499592 6.81961e-06 -1.58476e-05 -9.14115e-06 3.37221e-07 -1.42928e-08 1.14855e-07 -2.24334e-08 1.24765e-07 1.51302e-06 0.0005 
1544 1 -0.00998392 -0.00359582 0.000499793 -6.00444e-06 -9.25138e-05 2.03922e-05 6.48382e-08 -7.38765e-08 3.0627e-08 -1.31062e-07 3.55765e-08 1.03964e-06 0.0005 
2007 1 -0.00898691 -0.00352119 0.000499691 -1.72696e-05 6.86072e-06 2.48756e-05 2.03405e-07 -2.36069e-07 -2.1557e-08 -2.36684e-07 3.6238e-08 1.06479e-06 0.0005 
1617 1 -0.00781349 -0.00350145 0.000499382 -0.000254498 -0.000107154 8.35623e-05 1.57118e-07 -9.52583e-08 1.29875e-07 -1.3752e-07 5.49054e-08 1.16852e-06 0.0005 
230 1 -0.00403927 -0.00363954 0.000499474 -0.000562106 -0.000429794 0.000154221 8.89752e-07 1.07418e-06 4.36318e-07 -4.68503e-07 -8.24055e-08 9.29101e-07 0.0005 
1067 1 -0.00240215 -0.00355234 0.000499563 4.96071e-06 -0.000387001 -6.0876e-05 4.09484e-08 -7.49904e-07 -2.84543e-08 -1.14196e-06 -5.81887e-08 1.14251e-06 0.0005 
9 1 -0.0130665 -0.00247334 0.000499726 -8.55447e-05 2.30322e-05 4.23945e-06 -1.71364e-07 -1.41103e-07 3.09944e-08 5.17059e-08 -1.69541e-07 1.63273e-06 0.0005 
2406 1 -0.011663 -0.00306274 0.000499489 -4.46174e-05 2.84013e-05 -1.03192e-05 -1.16634e-07 6.46055e-08 -3.91928e-08 -3.17482e-08 9.43548e-09 1.02197e-06 0.0005 
178 1 -0.00953356 -0.00268116 0.000499707 -0.000164479 0.000237519 1.26479e-05 1.42481e-07 -7.11618e-08 -9.32781e-08 -2.65215e-07 -1.15876e-07 1.06616e-06 0.0005 
1238 1 -0.00853028 -0.00263188 0.000499613 -2.47842e-05 1.17988e-05 4.20984e-05 2.0923e-07 -2.17271e-07 9.36004e-08 -2.56725e-07 -9.05062e-08 1.10699e-06 0.0005 
1610 1 -0.00702973 -0.00272811 0.000499792 -0.000353804 -0.000150205 -2.71622e-05 -5.60672e-07 1.18852e-07 -2.23065e-07 3.68968e-08 7.69664e-09 1.18083e-06 0.0005 
391 1 -0.00604568 -0.00290563 0.000499802 -0.000550251 -0.000393709 0.000113059 -7.3968e-07 2.6045e-07 2.64941e-07 2.57821e-07 1.36144e-08 1.24124e-06 0.0005 
1178 1 -0.00505709 -0.00305521 0.000499739 -0.000590132 -0.000782224 -5.46692e-05 -2.65953e-07 6.6207e-07 3.09931e-07 7.48033e-08 -3.63092e-07 1.15006e-06 0.0005 
1798 1 -0.00416155 -0.00261098 0.000499692 -0.000682513 -0.000894072 3.93176e-05 -1.00702e-07 5.42382e-07 2.26523e-07 -3.72994e-07 -9.31079e-07 1.10225e-06 0.0005 
619 1 -0.00325076 -0.00302405 0.000499736 -0.000866243 -0.00178192 0.00017722 -6.87508e-07 -4.37068e-07 4.22143e-07 -8.81338e-07 -2.34489e-07 1.11414e-06 0.0005 
38 1 -0.00237591 -0.00252304 0.00049961 -0.000129746 -0.00095916 0.000159334 1.01258e-06 -4.3861e-07 -8.90712e-07 -1.00329e-06 -3.76422e-08 1.10964e-06 0.0005 
736 1 -0.00080094 -0.00293429 0.000499737 0.000327938 0.000361697 -6.8056e-05 -5.13901e-07 -7.7952e-07 2.32129e-09 -2.42133e-07 -3.82068e-08 1.1197e-06 0.0005 
186 1 -0.0124339 -0.0016991 0.000499362 -9.79894e-05 9.13927e-05 -3.04331e-05 7.5899e-08 -2.67015e-07 -1.12564e-07 1.02809e-07 -3.76744e-07 1.09696e-06 0.0005 
459 1 -0.0114415 -0.00208797 0.000499685 7.67353e-05 3.68985e-05 -3.07192e-05 3.61713e-08 -1.65662e-08 -1.82027e-07 -7.38167e-08 -2.79992e-07 1.02638e-06 0.0005 
866 1 -0.0104724 -0.00233525 0.000499724 -0.000138095 -4.45009e-05 5.8252e-06 2.11614e-08 -1.06629e-08 1.61376e-08 -1.6358e-07 -2.10764e-07 9.52459e-07 0.0005 
1411 1 -0.00937838 -0.00168651 0.000499564 4.7629e-05 6.87454e-05 -1.76247e-05 3.17488e-07 -2.46679e-08 -1.02319e-07 -2.6684e-07 -3.60145e-07 1.10841e-06 0.0005 
1278 1 -0.00774311 -0.00201569 0.000499575 4.88162e-05 -8.40739e-05 3.81864e-05 2.26566e-07 -2.18528e-07 -2.71936e-08 -1.43314e-07 -9.63146e-08 1.1746e-06 0.0005 
62 1 -0.00597408 -0.00189074 0.000499781 -0.000148625 -2.32559e-05 6.23645e-06 7.06769e-08 -1.31535e-07 -2.67915e-07 9.22942e-08 -1.35728e-07 1.25546e-06 0.0005 
1669 1 -0.00498629 -0.00204608 0.000499678 -0.000134443 -0.00012959 -8.64914e-06 2.41176e-07 2.92902e-07 3.12105e-08 -1.01954e-07 -5.68335e-07 1.0786e-06 0.0005 
695 1 -0.00128034 -0.00197419 0.00049979 -0.000943716 -0.000490896 2.09253e-05 -2.04295e-07 -2.07167e-07 -1.95797e-08 -4.27508e-07 -3.38439e-08 1.11039e-06 0.0005 
1530 1 -0.0132966 -0.00119362 0.000499781 -4.47126e-05 0.000175309 1.20447e-05 5.69652e-08 2.23962e-08 1.21081e-08 1.20739e-07 -3.77898e-07 1.7455e-06 0.0005 
1654 1 -0.0107117 -0.00136451 0.000499491 -1.86828e-05 -1.63265e-05 3.36921e-05 7.81577e-08 -1.37918e-07 -2.87215e-08 -1.35346e-07 -4.38087e-07 1.02553e-06 0.0005 
299 1 -0.00768169 -0.00101713 0.000499806 -0.000123541 -3.85678e-05 3.48714e-07 6.62732e-08 -5.54788e-08 3.67062e-10 7.02784e-08 -6.37276e-08 1.21094e-06 0.0005 
98 1 -0.00668139 -0.00106357 0.000499465 -0.000102919 7.80221e-05 -8.87008e-06 1.12819e-07 3.0467e-08 1.02762e-07 7.75558e-08 -7.87152e-09 1.26957e-06 0.0005 
1060 1 -0.00391854 -0.00156015 0.00049937 -0.000313258 -0.000264779 9.10607e-05 3.18896e-07 9.99827e-08 -7.495e-08 -4.43596e-07 -5.85223e-07 1.14749e-06 0.0005 
781 1 -0.0021544 -0.00126722 0.000499754 -0.000928272 0.000836202 0.000117599 1.00997e-06 1.22586e-07 6.67033e-07 -6.59824e-07 -1.2904e-07 1.17799e-06 0.0005 
1955 1 -0.000336099 -0.00148022 0.000499369 0.000358663 0.000106044 7.69151e-05 8.50677e-07 -9.50317e-07 1.18192e-06 -4.85508e-08 -1.95451e-08 1.07243e-06 0.0005 
967 1 -0.0133488 -0.000189603 0.000499795 5.04309e-06 0.00011365 -5.45811e-05 -1.11355e-08 -7.75998e-08 -5.85805e-08 1.11115e-07 -3.23473e-07 1.82173e-06 0.0005 
1675 1 -0.0124486 -0.000624506 0.000499682 -4.39608e-05 7.45561e-05 -2.00192e-05 -2.61736e-07 -2.84065e-07 1.27919e-08 1.29819e-07 -4.55385e-07 1.09736e-06 0.0005 
2125 1 -0.0114303 -5.1149e-05 0.000499679 -0.00126632 -0.000674088 -8.95644e-05 -1.63893e-06 -7.43626e-07 -5.6369e-07 7.31457e-08 -3.66685e-07 1.12869e-06 0.0005 
2169 1 -0.00952725 -0.000695923 0.000499635 -0.000110001 0.000209529 -4.28933e-05 2.18762e-08 1.10135e-07 -1.06083e-07 -1.96334e-07 -4.89505e-07 1.10272e-06 0.0005 
6577 1 -0.00857911 -0.000378783 0.000499287 -0.000117375 -3.67215e-05 6.06443e-05 3.43215e-07 -3.17764e-07 -1.99891e-07 6.31507e-08 -1.89347e-07 1.12798e-06 0.0005 
6638 1 -0.00682635 -7.48149e-05 0.000499597 -5.99267e-05 7.07576e-05 -9.97109e-05 1.10832e-07 4.6446e-08 8.93056e-08 9.88758e-08 7.28541e-08 9.03974e-07 0.0005 
1600 1 -0.00576972 -0.000653675 0.000499491 -1.41581e-05 -5.46183e-05 0.00012116 2.29652e-07 1.41571e-07 4.92389e-08 1.14285e-08 -6.74738e-08 1.28388e-06 0.0005 
5393 1 -0.00494614 -4.63219e-05 0.00049963 -0.000273092 -0.000322381 7.12154e-05 -2.96158e-07 3.03527e-07 -1.31169e-07 -2.88e-07 -1.955e-07 1.04139e-06 0.0005 
108 1 -0.00328655 -0.000753229 0.000499516 -0.000271104 -0.000275436 -3.40078e-05 -9.29328e-08 -5.38303e-07 2.58191e-07 -5.76546e-07 -3.37393e-07 1.1791e-06 0.0005 
288 1 -0.0018057 -0.000327522 0.000499661 -8.2939e-05 -0.000257595 -3.98167e-05 1.33568e-07 -2.12966e-07 3.17283e-09 -4.23767e-07 -7.79596e-08 1.11514e-06 0.0005 
1934 1 -0.000396474 -0.000482282 0.000499555 0.000300757 0.000136098 0.000147932 -3.28539e-07 -5.38648e-07 4.45356e-07 -1.09919e-08 9.11798e-08 1.09526e-06 0.0005 
1180 1 -0.00374522 -0.0128141 0.000921829 0.00019998 3.24108e-05 -1.71245e-05 1.04895e-07 -8.61421e-08 -1.01845e-06 -2.50426e-07 1.59126e-07 2.37381e-06 0.0005 
1047 1 -0.00271201 -0.0130721 0.000939657 0.000519296 1.66966e-05 0.000179961 -6.33227e-08 -3.42271e-07 -2.84625e-07 8.09508e-08 1.77844e-07 2.45335e-06 0.0005 
1971 1 -0.000134835 -0.0126714 0.00125287 0.000500746 8.46192e-05 -0.000409098 -3.86408e-07 -1.81019e-06 -1.23392e-06 4.13643e-07 -4.44697e-08 2.63595e-06 0.0005 
2053 1 -0.00467831 -0.0125037 0.00074174 0.000129465 -8.37361e-06 -0.000386735 5.7944e-08 -3.45311e-08 -4.92512e-07 -3.70442e-07 1.46487e-07 2.11649e-06 0.0005 
427 1 -0.0047727 -0.0110103 0.00116266 0.000143976 0.000881641 -0.000928459 -1.32994e-07 7.51951e-07 -6.11816e-07 -2.20258e-07 7.29173e-08 2.21031e-06 0.0005 
2081 1 -0.00166386 -0.0106823 0.000833628 0.000328057 0.000550146 0.00045273 4.56236e-07 -1.06789e-06 -6.57938e-07 2.77724e-07 1.68917e-07 1.92345e-06 0.0005 
1375 1 -0.00811459 -0.00948145 0.00093542 7.57188e-05 -0.000150789 0.000133945 3.44987e-07 -4.92681e-07 -2.35803e-08 -7.02629e-07 -2.85231e-07 2.19047e-06 0.0005 
1658 1 -0.00634917 -0.010058 0.000530074 0.000261973 3.54406e-05 0.000115614 1.44474e-07 1.99607e-07 -3.51942e-07 -4.85106e-07 -2.11491e-07 1.20959e-06 0.0005 
110 1 -0.00455482 -0.0100374 0.00108707 0.000577642 0.000742809 -4.95902e-05 1.9741e-07 -5.24818e-08 -1.1672e-07 -8.00703e-08 7.88819e-08 2.07852e-06 0.0005 
1487 1 -0.00224009 -0.00991915 0.00125104 0.000707728 0.000295672 0.000287635 -6.6245e-08 3.38897e-07 -3.47014e-07 2.06672e-07 1.15933e-07 2.48747e-06 0.0005 
2461 1 -0.00958332 -0.00929515 0.00112006 4.85425e-05 -7.48667e-05 3.17388e-05 2.58434e-08 -4.02674e-08 4.99661e-08 -1.4527e-07 -3.29748e-07 2.404e-06 0.0005 
1750 1 -0.00396364 -0.00923695 0.000991482 0.00053012 0.000784204 0.000169299 4.44242e-07 -1.41879e-07 2.64431e-08 1.8411e-08 8.65282e-08 2.34899e-06 0.0005 
243 1 -0.00696469 -0.00838954 0.00120736 -3.03833e-05 -0.000129613 5.034e-05 4.62896e-07 -4.13061e-07 -5.11468e-07 -4.97985e-07 -1.75601e-07 2.81838e-06 0.0005 
948 1 -0.00518308 -0.00800888 0.00076854 -0.000610971 0.000228721 -0.000543815 -1.01151e-07 1.03196e-07 -1.09194e-06 1.32607e-08 1.8582e-07 1.9122e-06 0.0005 
793 1 -0.00403134 -0.00821356 0.000716195 -0.000309521 0.00113431 -0.000734314 3.80159e-07 -2.35996e-07 -2.64779e-06 4.2383e-08 2.13685e-07 1.44195e-06 0.0005 
1694 1 -0.00169918 -0.00852891 0.00123486 0.000170969 -0.000426389 6.76734e-05 1.36214e-07 4.08833e-07 -1.66251e-07 1.25203e-07 -1.47057e-07 2.42725e-06 0.0005 
842 1 -0.0100261 -0.00764222 0.00106061 5.77879e-05 0.000113895 0.000120229 6.63787e-08 2.21605e-08 1.96448e-07 -8.42176e-08 -3.36653e-07 2.01968e-06 0.0005 
239 1 -0.0090061 -0.00742001 0.00114333 -0.000131717 -0.000155455 3.59318e-05 3.28581e-07 -1.90863e-07 -2.02896e-07 -6.88713e-07 -3.1893e-07 2.33107e-06 0.0005 
13 1 -0.0030549 -0.00786758 0.0011877 -0.000426955 9.77924e-06 -0.000117577 4.08759e-07 5.44561e-07 -2.83373e-07 -1.38123e-07 -8.62726e-09 2.72619e-06 0.0005 
1059 1 -0.00718015 -0.00674213 0.00118781 -0.000317782 -0.000152182 -0.00016179 3.11003e-07 2.95337e-07 2.95174e-07 -3.96825e-07 9.88373e-08 2.44195e-06 0.0005 
830 1 -0.0048842 -0.00642296 0.00105732 0.000181586 -0.00011892 6.71184e-05 6.01383e-08 2.26942e-07 -5.57145e-07 4.26097e-08 8.96152e-07 2.22197e-06 0.0005 
515 1 -0.00311001 -0.00650977 0.000808086 0.000129714 -5.14345e-05 0.000118407 1.51561e-08 9.62831e-07 -1.74635e-07 -4.27614e-07 1.99332e-07 1.65765e-06 0.0005 
2336 1 -0.00167702 -0.0069118 0.000539684 0.000260386 -6.46973e-05 -2.44074e-05 -7.76667e-08 1.56767e-07 -4.34286e-08 -1.28774e-07 -1.79575e-07 1.00785e-06 0.0005 
2421 1 -0.00054765 -0.00705796 0.000953562 0.000144995 0.00021769 -2.30905e-05 1.65054e-07 3.98797e-07 -1.33657e-06 2.46907e-07 -2.62714e-07 2.24249e-06 0.0005 
1645 1 -0.00625408 -0.00561005 0.00114384 6.0121e-05 -0.000513412 0.000192291 -9.32531e-08 -6.40931e-07 2.13635e-07 2.65988e-07 2.5759e-07 2.58101e-06 0.0005 
100 1 -0.00401389 -0.00567985 0.00124397 2.32462e-05 0.000454528 0.000164992 5.79728e-07 7.79731e-07 -3.98684e-07 -2.19558e-07 1.02122e-06 2.49285e-06 0.0005 
2208 1 -0.00153424 -0.00569647 0.00106687 1.46345e-05 -9.46862e-05 0.000107384 -1.33175e-06 1.28439e-07 -2.95833e-06 -2.78333e-07 -1.41878e-07 2.35557e-06 0.0005 
1899 1 -0.0103876 -0.00548425 0.0012524 2.78108e-05 -6.97849e-06 4.77413e-05 3.65229e-08 5.01713e-08 1.63814e-07 3.25803e-07 1.26441e-07 2.6606e-06 0.0005 
220 1 -0.00939494 -0.00552623 0.001143 6.54962e-05 -1.19028e-05 0.000136839 -3.54448e-08 -4.14208e-09 4.62191e-08 -2.49754e-09 1.07899e-07 2.53074e-06 0.0005 
1211 1 -0.00784 -0.00549105 0.00101683 9.18527e-05 -1.10604e-06 0.000107998 -1.45534e-07 -5.09799e-07 9.58767e-08 -2.91737e-07 1.31068e-07 1.98411e-06 0.0005 
565 1 -0.00330249 -0.00483415 0.00124738 -0.000562277 -0.000159885 -0.000130358 8.22464e-07 -1.99662e-07 -8.8683e-07 -9.13601e-07 1.90641e-07 2.19233e-06 0.0005 
2300 1 -0.0118197 -0.00397924 0.000866431 -8.01942e-05 5.33089e-05 -1.34696e-05 -4.18731e-08 1.18441e-07 6.27582e-08 3.79905e-11 2.29045e-07 1.76601e-06 0.0005 
1986 1 -0.00646784 -0.00463541 0.0010839 0.000156078 -0.00032949 0.000127409 1.72903e-07 -4.8522e-07 2.66484e-07 6.75765e-07 2.32767e-07 2.28777e-06 0.0005 
1236 1 -0.00463025 -0.00465043 0.00122985 -0.000733875 -0.000716971 -3.3883e-05 1.45557e-07 -1.05887e-07 -7.5377e-07 -9.39183e-08 4.21436e-07 2.03667e-06 0.0005 
696 1 -0.00687045 -0.00370619 0.000760433 -0.000210676 -0.000451633 0.000115537 2.82035e-07 -1.58141e-07 -4.507e-07 3.32245e-07 1.60391e-07 1.48414e-06 0.0005 
704 1 -0.00148832 -0.00353666 0.000905015 0.000307977 0.000376777 -0.000483784 2.08154e-08 9.61826e-08 -1.46166e-07 -5.86569e-07 -3.39354e-08 1.77549e-06 0.0005 
2160 1 -7.74919e-05 -0.00354832 0.000917987 -0.000150228 -0.000132173 -2.93637e-05 -1.3945e-06 4.2747e-07 1.73119e-06 1.35037e-07 -2.1205e-07 1.63552e-06 0.0005 
532 1 -0.010793 -0.00314895 0.000984231 -0.000109221 -5.49923e-05 1.13075e-05 -7.44358e-10 -1.91163e-08 1.40012e-07 -9.31712e-08 4.13026e-08 1.9997e-06 0.0005 
1201 1 -0.00781759 -0.00277508 0.00118605 -0.000182953 -2.43863e-05 0.000131121 -1.41854e-08 -2.13894e-07 1.96922e-07 -3.06026e-07 -7.40912e-08 2.68333e-06 0.0005 
2224 1 -0.00854951 -0.00179596 0.00104775 5.51313e-05 0.000186761 -8.25446e-05 3.61824e-07 -1.38357e-07 -9.28052e-08 -9.65436e-08 -1.83421e-07 1.79294e-06 0.0005 
1596 1 -0.00696542 -0.00181463 0.00109456 5.33535e-05 9.18392e-05 7.35331e-05 5.67469e-08 2.67393e-08 1.34325e-08 5.46607e-08 -3.31205e-08 1.84825e-06 0.0005 
2261 1 -0.00297769 -0.00176936 0.000763802 -0.000174496 -0.00094488 -0.000288513 5.33285e-07 -8.85665e-07 -1.95039e-07 -7.93859e-07 -2.59743e-07 1.65627e-06 0.0005 
48 1 -0.000545189 -0.00210692 0.00124925 8.93939e-05 0.000217227 0.000301287 2.45419e-07 -6.64577e-07 3.2084e-06 -1.46016e-07 -5.69618e-09 2.508e-06 0.0005 
78 1 -0.0116469 -0.00115108 0.000781392 -0.000155885 -2.46878e-05 3.3061e-05 -3.94617e-07 -5.1027e-07 3.5078e-07 -3.29018e-08 -4.74137e-07 1.62277e-06 0.0005 
367 1 -0.0100436 -0.00116468 0.00121592 1.02477e-05 0.000193545 6.92967e-06 1.44071e-07 -2.89633e-07 -7.56904e-07 -2.47851e-07 -5.5286e-07 2.52864e-06 0.0005 
5 1 -0.00507945 -0.00118152 0.000993145 8.88448e-05 -0.000213654 0.000150048 1.92199e-07 -4.46842e-08 3.84733e-08 -1.16624e-07 -3.62078e-07 2.19542e-06 0.0005 
1357 1 -0.00117142 -0.00103206 0.00081664 -0.000131628 -0.000395158 -0.000317609 5.82947e-07 -3.62558e-07 3.25033e-07 -3.9687e-07 -6.77372e-08 1.79823e-06 0.0005 
2095 1 -0.0104745 -0.000401363 0.000623478 -0.000114198 4.6833e-05 2.05491e-06 -1.61689e-07 6.15126e-08 1.05544e-07 -3.76093e-08 -4.54405e-07 1.19988e-06 0.0005 
42 1 -0.00422317 -0.000681795 0.000867038 -0.000133952 1.33393e-05 2.43755e-05 -2.52244e-07 -4.78399e-07 -4.53156e-07 -3.3185e-07 -5.3638e-07 2.03286e-06 0.0005 
548 1 -0.00254121 -0.000558182 0.00113662 -0.000214164 -0.000200875 -6.5764e-06 -4.56878e-07 -1.46839e-06 -3.70611e-08 -6.61159e-07 -1.69906e-07 2.69256e-06 0.0005 
805 1 -0.00294619 -0.0130209 0.00191024 0.000223174 -0.000167381 0.000301501 -1.18089e-08 2.92731e-07 -1.25467e-07 3.00639e-08 1.06757e-07 3.60303e-06 0.0005 
643 1 -0.00198862 -0.0132013 0.00161758 0.000458419 -9.37662e-06 4.52382e-05 4.35115e-07 -1.71054e-07 -6.72012e-07 3.26313e-07 1.52034e-07 3.33045e-06 0.0005 
1951 1 -0.000908545 -0.0133193 0.00131072 0.000220053 0.000209441 -0.000468158 5.29142e-07 -1.87402e-07 -1.27338e-06 4.84746e-07 1.26395e-07 2.95665e-06 0.0005 
2416 1 -0.000182163 -0.0133481 0.00199769 8.87679e-05 0.000267541 0.00016971 -1.80799e-07 -5.4074e-08 -1.29403e-06 4.1947e-07 3.95769e-08 3.63521e-06 0.0005 
2017 1 -0.00570923 -0.0119686 0.00126755 0.000118793 0.000168948 0.000138377 2.61861e-08 2.9095e-07 5.59893e-07 -4.92152e-07 2.55972e-08 2.68754e-06 0.0005 
527 1 -0.00436208 -0.0126173 0.0016837 -0.000439088 0.00026235 -0.000402565 -6.58906e-07 2.4088e-07 -1.90767e-06 -2.70574e-07 1.58537e-07 3.17881e-06 0.0005 
2327 1 -0.00336378 -0.01207 0.00147001 -0.00018685 0.000301675 -0.000107997 -8.01493e-07 -5.9965e-07 -6.90335e-07 -9.38626e-08 2.5424e-07 3.03518e-06 0.0005 
886 1 -0.00238428 -0.0122671 0.00143369 -6.59497e-05 0.000370028 0.000285533 2.05832e-07 -9.56196e-08 -1.38948e-06 2.14776e-07 2.85637e-07 2.85834e-06 0.0005 
848 1 -0.00141905 -0.0124613 0.00126091 0.00015813 0.000501521 0.000228072 2.91474e-07 -3.74886e-07 -7.88993e-07 4.62916e-07 2.85278e-07 2.93325e-06 0.0005 
125 1 -0.000672714 -0.0119396 0.00167319 0.000735771 0.000317541 -3.8258e-05 -5.77305e-07 -1.13222e-06 -1.70075e-07 4.07138e-07 2.3813e-07 3.38609e-06 0.0005 
2456 1 -0.00684499 -0.0114618 0.00140617 -0.000640757 0.00034216 0.000258362 2.8201e-07 2.66429e-07 -5.17375e-07 -5.00707e-07 4.46807e-08 2.72588e-06 0.0005 
461 1 -0.00540062 -0.0112586 0.00190074 0.000276188 0.000361795 1.92963e-05 -5.22049e-07 -3.04281e-07 -3.88003e-07 -3.41657e-07 5.38863e-08 3.37942e-06 0.0005 
2263 1 -0.00447833 -0.0116443 0.00188264 0.000364475 0.000412743 8.75632e-05 -6.8059e-07 1.05506e-07 -2.40041e-07 -2.28397e-07 1.54216e-07 3.3688e-06 0.0005 
1851 1 -0.00379927 -0.0111843 0.0013108 -3.04959e-05 0.000400442 -0.000175337 -4.31746e-07 -2.37847e-08 -1.25733e-07 -4.17934e-08 2.75625e-07 2.83457e-06 0.0005 