ITEM: TIMESTEP
1000
ITEM: NUMBER OF ATOMS
2253
ITEM: BOX BOUNDS ff ff ff
-0.016 0.016
-0.016 0.016
-0.01 0.061
ITEM: ATOMS id x y z radius omegax omegay omegaz vx vy vz fx fy fz 
1 -0.00594955 -0.00492134 0.00417439 0.000974091 -104.09 44.1237 -69.033 -0.142618 0.191124 0.000953032 0 0 -9.49502e-05 
15 -0.00973739 -0.00644446 0.00118106 0.00117313 -59.2509 -81.7978 -13.6998 -0.0331702 -0.101894 0.0389697 0 0 -0.000165856 
50 -0.00139912 -0.0121642 0.00718057 0.0011164 61.543 7.55185 38.3664 0.0236519 -0.0974145 -0.122723 0 0 -0.000142942 
2 -0.0085625 -0.00428351 0.00117948 0.00116016 -45.5315 102.628 -56.6646 0.12362 0.00915512 0.0517364 -0.0164996 0.00488214 -0.0136417 
17 -0.00260392 -0.00365014 0.00113877 0.00107032 -64.5848 98.5453 -90.5289 -0.0519264 -0.00850654 -0.030165 0 0 -0.00012596 
11 -0.0134193 -0.00303322 0.0012482 0.00100442 57.0001 -3.73859 58.5559 -0.0431012 0.0820938 0.208429 0 0 -0.000104098 
28 -0.00908929 -0.00177227 0.00112093 0.00111862 3.7656 9.91673 -45.1522 0.0497281 -0.0149879 -0.112982 0.00424519 0.00244886 -0.00667593 
21 -0.0115522 -0.00145716 0.00105511 0.0010261 -214.73 2.36504 -91.1681 -0.00441157 -0.302232 0.00115231 0 0 -0.000110986 
129 -0.00779459 -0.00320151 0.00566816 0.00107213 41.4048 41.131 2.62802 0.172493 0.0426085 -0.265896 0 0 -0.000126602 
19 -0.00271797 -0.00148551 0.00101173 0.00100937 -13.2037 -139.085 18.199 0.36069 -0.158246 -0.130716 0 0 -0.000105644 
86 -0.00403234 -0.000415505 0.00659025 0.00107722 54.8159 -23.5641 -59.6677 0.0667809 0.12638 -0.21909 -0.00218311 0.00741054 -0.0100847 
2265 -0.000689072 -0.00730425 0.00143756 0.00114719 82.6579 -55.4042 32.5774 -0.034097 0.132405 0.0967419 0.0343411 -0.0276188 -0.00927218 
5 -0.00657384 -0.0109992 0.00231263 0.00101193 -29.9253 74.7898 -148.347 0.0582877 -0.0669676 -0.0569102 0 0 -0.00010645 
2258 -0.00219053 -0.010189 0.00336708 0.000804123 0 0 0 0 0 -0.196102 0 0 -5.34151e-05 
2264 -0.0106072 -0.00605098 0.00338335 0.00112948 -36.5897 131.49 24.4224 0.0248615 0.126668 -0.00949714 0 0 -0.000148026 
8 -0.0100562 -0.0091747 0.00110108 0.0010189 -43.5618 11.3837 32.1877 -0.217678 -0.0487194 -0.034425 0 0 -0.000108665 
14 -0.0126822 -0.00532816 0.00112285 0.000982875 -58.0527 -31.7346 0.755898 -0.0591833 0.0159036 -0.0499248 0 0 -9.75422e-05 
26 -0.0106313 -0.00356918 0.00109859 0.00102742 -41.0414 -123.794 4.89774 0.149915 -0.112964 0.0507936 -0.00299923 -0.00698603 -0.0102714 
16 -0.00942327 -0.00416753 0.00348177 0.000923515 67.9572 -119.562 55.0199 0.0651897 0.0551694 -0.279875 0 0 -8.0915e-05 
1 -0.00595418 -0.00363593 0.000981412 0.000974091 56.6018 28.2481 -70.11 0.197208 -0.0721087 0.29523 0 0 -9.49502e-05 
2263 -0.0139112 -0.0021861 0.00292119 0.00088111 66.4626 24.824 -37.8187 -0.00367153 -5.05758e-05 -0.146289 0 0 -7.0273e-05 
10 -0.00679409 -0.00201929 0.00105594 0.000763016 249.948 64.886 154.088 -0.014891 -0.0530779 -0.0856753 0 0 -4.56351e-05 
27 -0.00407394 -0.00126421 0.00259513 0.000913694 -5.05274 28.459 -50.3251 0.0594957 0.0484165 -0.261744 0 0 -7.83609e-05 
2261 -0.00274349 -0.00391013 0.00336471 0.00116336 27.802 -36.9542 -12.9528 0.0656709 -0.00529803 -0.0010504 0 0 -0.00016175 
168 -0.0111914 -0.00302622 0.00569721 0.000823698 -141.122 127.433 110.185 -0.0796236 -0.0148972 -0.141483 0 0 -5.7412e-05 
22 -0.0139366 -0.00072195 0.00127616 0.000930804 -2.79018 33.8839 -122.42 0.00969755 -0.134431 -0.246451 0 0 -8.28461e-05 
3 -0.0102833 -0.000521902 0.00211443 0.000850104 -77.0856 -33.9758 4.23305 -0.140232 -0.0615939 -0.133143 0 0 -6.31122e-05 
1225 -0.000902896 -0.00504236 0.00274454 0.00104699 33.2458 -96.3875 65.0489 0.0631373 -0.00279483 -0.0212452 -0.00182406 -0.0144346 -0.00755137 
87 -0.000585824 -0.0134461 0.00106889 0.000990881 41.2821 -155.188 43.2489 -0.0919563 0.0537083 0.316133 0 0 -9.99452e-05 
194 -0.00838263 -0.0100172 0.00331669 0.00117447 -64.1288 -23.1747 -11.0824 -0.10774 -0.0241147 -0.165049 0 0 -0.000166426 
2260 -0.00587954 -0.0126472 0.00339805 0.00102242 30.463 12.9231 -5.87705 0.255069 -0.0464182 -0.162131 0.00547493 0.0124278 0.000201069 
2255 -0.0026275 -0.00883459 0.0015614 0.00107 28.6801 25.9998 -58.8623 0.423121 0.0333245 -0.307162 0 0 -0.00012585 
2256 -0.0034021 -0.00768649 0.00575293 0.000993749 101.424 -85.14 201.74 -0.0471904 -0.0468591 -0.0981333 0 0 -0.000100816 
117 -0.00904219 -0.00777076 0.0028763 0.00102029 48.5353 -72.2821 -130.173 0.166547 0.0645788 -0.0665415 0 0 -0.000109111 
2259 -0.00612101 -0.00880278 0.00170567 0.00121098 -9.89051 -27.3403 -82.5169 0.0812328 -0.0292771 -0.234364 0 0 -0.000182435 
155 -0.00561587 -0.00337343 0.00486306 0.000944558 99.336 7.67414 11.982 0.106436 -0.0194527 -0.0900372 -0.0084343 0.00238133 -0.003051 
162 -0.0127871 -0.00555381 0.00397013 0.00101368 6.07203 4.13683 -28.7798 0.120004 0.054219 -0.0922965 0.00133816 -0.00607206 -0.00173405 
132 -0.0112771 -0.00439854 0.00449878 0.000908602 -16.116 -60.6535 156.213 -0.0243458 -0.261366 -0.11492 0 0 -7.70581e-05 
6 -0.0070107 -0.00495555 0.00243452 0.000969798 -93.1311 81.0872 25.8971 -0.0301342 -0.0654646 -0.270497 0.0164996 -0.00488214 0.0133876 
106 -0.00843985 -0.00582426 0.00387103 0.00101582 16.1963 109.974 -31.124 0.00650316 -0.0354148 -0.235686 0 0 -0.000107683 
101 -0.00506593 -0.000918061 0.0011568 0.000811312 30.5335 -140.203 120.209 0.342475 0.0756419 -0.0201947 0 0 -5.48607e-05 
60 -0.00233844 -0.00603113 0.00165989 0.000999315 -136.425 -313.718 -15.8852 0.0314375 0.00230633 -0.33354 -0.0343411 0.0276188 0.00901457 
98 -0.0133652 -0.00356946 0.00434699 0.00109459 87.7916 107.951 49.4706 -0.0424543 -0.0148411 -0.161828 -0.00133816 0.00607206 0.00149232 
178 -0.0120089 -0.00381601 0.00262856 0.00104583 -15.3898 107.833 -42.9231 0.131538 -0.0508208 0.0778838 0 0 -0.000117513 
2262 -0.00709036 -0.00374492 0.00388362 0.000848192 197.474 -119.305 89.174 0.106798 -0.217847 0.0587373 0 0 -6.26874e-05 
208 -0.00571583 -0.00246485 0.00283171 0.000983462 25.772 35.6878 -97.514 0.314253 -0.0566816 -0.24869 6.38545e-05 -0.000653433 -1.64082e-05 
38 -0.00905962 -0.00564864 0.00622725 0.00102024 63.3609 17.9288 2.2537 -0.226845 0.0361651 0.0170669 0 0 -0.000109096 
141 -0.0141048 -0.000663232 0.00400915 0.00086723 100.462 113.131 -30.0154 -0.00318262 -0.295794 0.185943 0.0164418 0.000805169 -0.000357247 
212 -0.0125423 -0.000796262 0.00285139 0.00103217 52.2651 47.9846 -0.0264882 -0.0416773 0.25094 -0.0661284 0 0 -0.000112966 
45 -0.0103374 -0.00238879 0.00266227 0.000968865 -51.4446 37.7214 22.3298 -0.193899 0.0138018 -0.098966 -0.00150109 0.00445037 0.016099 
79 -0.0117846 -0.00232458 0.00398557 0.000867149 -9.36211 21.6983 59.077 -0.00149423 0.0236531 -0.0601902 0 0 -6.69853e-05 
136 -0.00784873 -0.00262685 0.00257584 0.000960444 55.0468 80.6178 -78.9948 0.0824802 -0.194846 -0.105081 0 0 -9.10152e-05 
144 -0.000530444 -0.000673462 0.00256985 0.000894226 115.088 -46.2536 -28.619 0.0829892 -0.0213396 -0.283192 0 0 -7.34582e-05 
112 -0.00846027 -0.000791696 0.00278824 0.000888866 75.252 -156.099 44.6212 0.0239542 0.0290579 -0.0155244 0 0 -7.21449e-05 
190 -0.0105844 -5.44875e-05 0.0039881 0.00110307 43.7452 47.4039 29.7025 -0.0776015 -0.0385187 -0.110676 0.00382612 0.00145632 -0.00171172 
137 -0.00706035 -0.0060376 0.00552729 0.00104335 42.7859 64.141 -3.55029 0.0480698 -0.0368728 -0.169438 -0.0039887 -0.00272436 -0.00159076 
204 -0.00606495 -0.000442729 0.00271746 0.001072 8.57168 70.425 -25.7551 0.110015 -0.171885 0.123247 -6.38545e-05 0.000653433 -0.000207865 
200 -0.00370093 -0.000743691 0.00457102 0.00085771 -84.2439 129.873 126.652 0.0164085 -0.0525209 -0.311868 0 0 -6.48214e-05 
149 -0.00484227 -0.00500271 0.00271133 0.000953619 -24.7342 -131.77 -48.0625 0.0559911 0.294342 0.138482 0 0 -8.90885e-05 
1168 -0.00340254 -0.00671943 0.00376974 0.00102535 -18.961 -141.345 -91.0251 0.0767014 -0.101649 -0.22304 0 0 -0.000110742 
47 -0.00415845 -0.00244094 0.00413819 0.000942962 -75.2029 -151.364 -3.11334 0.0987635 0.00533997 0.104306 0.00720663 0.00383834 -0.00418408 
34 -0.00714297 -0.00133667 0.00422231 0.000926769 31.369 -41.0707 13.8626 0.227344 0.0814313 0.0834351 0 0 -8.17734e-05 
88 -0.00387025 -0.0047559 0.0049712 0.000965308 -58.1879 63.4641 -103.17 0.0796498 -0.320682 -0.332995 0 0 -9.2405e-05 
148 -0.0070741 -0.00803556 0.00409624 0.0009994 -21.7068 66.9868 -24.9609 0.183732 0.0712174 -0.292123 0 0 -0.000102545 
57 -0.00130259 -0.0135302 0.00337453 0.00100948 -72.9246 -68.3823 2.43004 -0.133054 -0.11413 -0.167169 0 0 -0.000105678 
153 -0.00279432 -0.0131124 0.00516251 0.00108599 -88.7609 -85.7187 -31.4974 0.158585 0.0906732 -0.233337 0 0 -0.000131577 
35 -0.00205015 -0.00185236 0.00411236 0.00109043 -31.3919 31.4324 0.867048 -0.236235 -0.0262626 -0.178525 0 0 -0.000133195 
122 -0.00967418 -0.00967798 0.00550792 0.00110645 -4.02965 -1.69069 -82.427 -0.0729544 -0.0221572 -0.220961 0 0 -0.000139154 
67 -0.0109539 -0.00841737 0.0037907 0.0011062 127.915 36.8565 43.5425 -0.195446 -0.122355 -0.0925456 0 0 -0.000139058 
105 -0.00660076 -0.00964491 0.00538616 0.000934517 79.0707 82.1601 -73.216 -0.074723 0.100473 -0.0610527 0 0 -8.38416e-05 
128 -0.00965568 -0.00377129 0.0052593 0.000859712 -28.4723 10.4277 -1.16282 0.051454 0.170047 -0.179245 0 0 -6.52765e-05 
69 -0.00925108 -0.0020887 0.00434696 0.00106007 122.085 70.2546 -77.468 0.200533 -0.0655306 -0.0674701 0.000255131 8.67965e-05 0.000377348 
164 -0.0123453 -0.000772413 0.00494061 0.00102838 6.06756 -15.6481 -80.2229 0.0547611 0.00370436 -0.0335643 -0.00382612 -0.00145632 0.00146211 
2277 -0.00421864 -0.00972501 0.00286781 0.000990267 -30.4755 40.4908 -110.555 0.219479 0.0177436 -0.0990106 0 0 -9.97596e-05 
139 -0.0108714 -0.00618312 0.00544304 0.000940593 150.299 -51.779 -24.3868 0.109799 0.226646 0.140727 0 0 -8.54874e-05 
166 -0.00910515 -0.0076041 0.00514718 0.00103202 11.2239 2.05986 -12.9512 0.0428571 -0.0642973 -0.260014 0 0 -0.000112919 
2267 -0.00180237 -0.00596406 0.00485999 0.000722957 189.733 -166.499 2.75462 -0.108526 -0.158549 -0.362551 0 0 -3.88182e-05 
54 -0.0137351 -0.00187244 0.00616346 0.00100561 9.01917 -71.1239 -50.1576 -0.122344 0.0941058 -0.12949 0 0 -0.000104468 
1143 -0.00134505 -0.00360154 0.00561591 0.00113668 72.2485 -20.0912 -19.2899 0.0101227 -0.104119 -0.239153 -0.00070445 -0.00334194 -0.00696376 
216 -0.0111193 -0.007993 0.00648295 0.00116121 -24.3914 14.5559 -2.7121 -0.0140715 -0.0883213 -0.213962 0 0 -0.000160852 
2274 -0.00286185 -0.0109804 0.00497569 0.000916202 10.0424 93.9277 -7.7123 0.123069 0.000279086 -0.278466 0 0 -7.9008e-05 
177 -0.00660265 -0.00781476 0.00666656 0.000973309 -71.3674 46.2613 21.2183 0.0166034 -0.036739 -0.152486 -0.00340598 0.00120091 -0.00631082 
33 -0.00525685 -0.00660797 0.004742 0.000974333 18.2163 104.325 -25.7501 -0.0786782 -0.0148019 -0.249817 0 0 -9.5021e-05 
169 -0.0127575 -0.00510231 0.0060744 0.00111024 70.0024 -39.5619 8.01487 -0.0429718 -0.134132 -0.18505 0 0 -0.000140587 
210 -0.000530369 -0.003202 0.00353538 0.00100814 61.1775 -6.84975 83.5016 0.109251 -0.261475 -0.330075 0.00182406 0.0144346 0.00732821 
37 -0.00625846 -0.0120738 0.00529207 0.000946138 24.1245 -44.5144 25.1832 0.0246363 0.0386714 -0.236999 0 0 -8.70085e-05 
2276 -0.000374576 -0.0127959 0.00526284 0.00100276 -46.7792 92.395 10.0537 0.337034 0.179704 0.0506289 0 0 -0.000103582 
214 -0.00325823 -0.005514 0.00678402 0.0010631 36.7935 58.1842 -48.8492 -0.00312438 -0.0810677 -0.225534 0 0 -0.000123431 
90 -0.00550963 -0.00480057 0.00629008 0.00108781 -67.4075 44.0777 -74.9188 0.0528976 -0.0344107 -0.170349 0.00521637 -0.00349531 0.00840421 
110 -0.00203586 -0.000545361 0.00604188 0.00096861 -44.6674 -16.8884 -85.2192 -0.055021 -0.107034 -0.333265 0 0 -9.33566e-05 
59 -0.00589424 -0.00159334 0.00604023 0.00105376 35.4788 -97.6805 14.9436 -0.0386016 -0.027618 -0.341696 0 0 -0.000120206 
20 -0.000408273 -0.00316326 0.00132036 0.00112041 -26.633 78.9897 117.601 -0.22683 0.122094 -0.0524796 0 0 -0.000144488 
95 -0.00551427 -0.00978221 0.00726709 0.00105643 44.1115 -101.689 -0.22124 0.0937232 0.0756603 -0.245864 0 0 -0.00012112 
217 -0.000638115 -0.00703399 0.00560093 0.000914039 79.0009 -65.3283 -2.39607 0.0752095 0.101212 -0.416404 0 0 -7.84497e-05 
2289 -0.000193948 -0.00911755 0.00439534 0.000844191 -49.1992 152.246 104.937 -0.0496299 0.00176453 -0.576055 0 0 -6.18043e-05 
81 -0.00439479 -0.011912 0.00710139 0.00112623 8.32361 81.6277 -23.213 0.126497 0.0287085 -0.272782 0 0 -0.00014675 
225 -0.00828939 -0.0110164 0.00674986 0.00117252 33.9589 20.4831 0.526857 -0.0857123 0.00546771 -0.263387 0 0 -0.000165601 
119 -0.0107737 -0.00458015 0.00662545 0.000988916 58.6491 -13.6771 29.7634 0.0514573 0.00487485 -0.0388819 0 0 -9.93519e-05 
224 -0.00845351 -0.00808598 0.00693982 0.000864235 57.9811 -189.701 -140.202 0.141445 0.0416058 -0.25022 0 0 -6.63122e-05 
131 -0.00401048 -0.00264996 0.0062478 0.00105365 -34.7771 84.1953 38.5462 -0.0632626 0.172776 -0.232283 0 0 -0.000120169 
89 -0.0120977 -0.00295751 0.00718818 0.000910553 0.974659 2.69449 -26.6394 -0.100116 -0.215583 -0.135946 0 0 -7.75556e-05 
71 -0.00938452 -0.00185307 0.00682166 0.0012662 18.5355 10.5997 21.211 0.114575 0.00292078 -0.216853 0.00235784 0.000550694 -0.00451785 
120 -0.000427896 -0.00583423 0.00724622 0.000938451 97.8471 75.1218 134.511 0.0460597 -0.0972071 -0.234636 0 0 -8.49049e-05 
2273 -0.0017757 -0.00764458 0.00714407 0.00108774 41.2404 18.2614 -61.4343 0.194486 0.12035 -0.318425 0 0 -0.000132213 
2283 -0.00811413 -0.000195186 0.00600584 0.000931143 133.208 52.5916 146.382 -0.169392 -0.189304 -0.3117 0 0 -8.29368e-05 
2279 -0.00361971 -0.00863917 0.00765351 0.000987887 134.516 79.7911 161.395 0.204493 0.101948 -0.14042 0 0 -9.90421e-05 
76 -0.00113924 -0.00247647 0.00742612 0.00101302 19.1399 27.6336 2.51524 0.0261746 -0.0228273 -0.366699 0.00070445 0.00334194 0.0067061 
349 -0.000641404 -0.0110716 0.0180278 0.00113584 64.3342 16.7563 35.5655 -0.0711585 0.02014 -0.329144 0 0 -0.000150539 
310 -0.00763267 -0.00545027 0.0214125 0.000980086 -4.32159 10.0693 28.1825 0.0852426 -0.0543085 -0.375936 0 0 -9.67142e-05 
343 -0.00399423 -0.0014161 0.0206235 0.00117469 48.0507 41.4761 3.55308 0.0324233 0.043172 -0.399344 0 0 -0.000166522 
389 -0.00104002 -0.00668594 0.0213249 0.000971808 -58.7025 -34.9054 85.0752 0.107454 0.150631 -0.356372 0 0 -9.42842e-05 
267 -0.00255969 -0.00315127 0.0217934 0.00101165 49.6425 -33.8182 42.5712 0.0959717 -0.0800311 -0.431173 0 0 -0.000106362 
377 -0.00509735 -0.0105227 0.0249338 0.00113695 3.46285 -13.1371 -24.2032 0.0223271 0.07191 -0.30252 0 0 -0.00015098 
288 -0.0100547 -0.00611965 0.0220666 0.000968827 22.5163 -3.40603 -31.2654 -0.0292434 -0.0829868 -0.371005 0 0 -9.34193e-05 
296 -0.0069286 -0.009354 0.0199921 0.000934472 70.664 29.264 -38.8376 0.0718117 -0.0420733 -0.293783 0 0 -8.38295e-05 
2302 -0.0109766 -0.00842754 0.0212453 0.00108866 -31.7594 -17.5457 -12.2945 0.0246032 -0.00795935 -0.38205 0 0 -0.000132548 
229 -0.00813979 -0.0110202 0.024242 0.00116893 -9.96702 14.2149 -9.11464 0.0704714 -0.0440835 -0.403948 0 0 -0.000164082 
397 -0.00258955 -0.000688227 0.0222506 0.00107843 -5.65094 -17.5326 -3.60038 0.068264 0.0443257 -0.359252 0 0 -0.000128846 
348 -0.012929 -0.00140656 0.0195495 0.000974137 0.493116 27.818 -18.3448 0.0792863 0.154253 -0.384639 0 0 -9.49639e-05 
881 -0.0056841 -0.00082452 0.0182756 0.00114716 36.5067 -32.9904 -20.307 -0.0227179 -0.0582055 -0.337452 0 0 -0.000155084 
2266 -0.00105516 -0.0129305 0.0201354 0.00121314 -19.5781 -16.1623 -12.7279 -0.0385085 0.0701319 -0.349595 0 0 -0.000183415 
2285 -0.0106027 -0.0011818 0.0210856 0.0010229 71.8454 -1.59342 -77.6271 0.00992962 0.0605265 -0.225287 0 0 -0.000109951 
2296 -0.0106684 -0.00311602 0.0221353 0.00113342 22.216 10.0619 -17.8093 0.11008 -0.0133164 -0.288779 0 0 -0.000149579 
361 -0.00119139 -0.00470675 0.0187856 0.000944374 -38.0043 28.7225 -51.4254 0.00222322 0.0345566 -0.367723 0 0 -8.65227e-05 
357 -0.00325857 -0.0014348 0.0178376 0.00103753 28.7743 10.5293 -53.2228 0.0223856 0.0582774 -0.309413 0 0 -0.000114734 
243 -0.00315323 -0.00319195 0.0188878 0.000957831 8.23243 -32.1718 -94.6174 0.0254175 0.0364699 -0.360346 0 0 -9.02745e-05 
250 -0.00498236 -0.00395968 0.0207982 0.00104996 -51.5453 55.3504 64.7384 0.0574355 -0.0629281 -0.356251 0 0 -0.000118911 
248 -0.0066642 -0.00317507 0.0196077 0.00103676 88.8851 20.9149 1.33309 0.0369462 -0.0672526 -0.352695 0 0 -0.00011448 
2287 -0.00746274 -0.00509731 0.0186915 0.000895039 -138.113 85.2324 19.5624 0.0846732 0.141031 -0.325483 0 0 -7.36586e-05 
399 -0.00503576 -0.00353147 0.0231837 0.0009004 71.2211 49.6838 -29.2551 0.0704021 -0.00674169 -0.366567 0 0 -7.49902e-05 
312 -0.00151222 -0.00140981 0.0193972 0.0012508 15.9821 34.9166 59.078 0.0611318 0.0546522 -0.426598 0 0 -0.000201028 
297 -0.000391013 -0.000911928 0.0221861 0.0010212 -89.2084 -11.3371 37.6676 0.100671 -0.114333 -0.348166 0 0 -0.000109403 
315 -0.0131207 -0.00337102 0.021562 0.001125 -49.1807 24.2457 39.5772 -0.0354358 -0.04995 -0.388247 0.000415736 0.000490473 -0.00465483 
239 -0.00322085 -0.00712378 0.0163984 0.00107155 -28.9571 6.73256 3.53487 -0.0262392 -0.062396 -0.328856 0 0 -0.000126396 
2318 -0.0108377 -0.00858498 0.0239197 0.000957134 -16.9925 41.2138 -1.30909 -0.0108405 -0.00431937 -0.364569 0 0 -9.00774e-05 
2278 -0.00958064 -0.00946257 0.0192368 0.000915537 -23.2537 -16.673 28.5867 0.134837 -0.0279335 -0.268094 0 0 -7.88363e-05 
241 -0.0122699 -0.00610836 0.0249651 0.00123681 -13.6648 -22.1559 -10.9375 0.0295927 -0.0502472 -0.37514 0 0 -0.000194362 
2294 -0.000367829 -0.00394146 0.023936 0.000982603 7.16716 -53.9411 -21.3407 -0.0810977 -0.0135084 -0.483162 0 0 -9.74613e-05 
327 -0.00960681 -0.0100364 0.0222913 0.00106141 -7.7331 -58.9591 28.9497 -0.0255123 -0.00159602 -0.304144 0 0 -0.000122843 
2327 -0.00736817 -0.00937143 0.0227636 0.000891802 34.8116 -44.1839 -54.7338 -0.0967771 -0.15634 -0.306263 0 0 -7.28623e-05 
2311 -0.000226054 -0.00279059 0.0213954 0.000996992 -82.8442 102.24 -133.035 -0.135948 -0.0540261 -0.337895 0 0 -0.000101806 
252 -0.0122992 -0.00164214 0.0236848 0.000927626 -76.3567 -130.928 -34.5483 0.0412219 0.0368957 -0.353559 0.00210352 0.0061005 -0.000312074 
167 -0.00969576 -0.00010914 0.0113671 0.000937707 -16.7414 -3.04733 43.0206 0.0301978 -0.0518061 -0.409235 0 0 -8.47031e-05 
2332 -0.00425144 -0.0109253 0.0225394 0.000879295 -56.5266 61.0103 -9.71224 -0.0190144 -0.115186 -0.385451 0 0 -6.98397e-05 
383 -0.00486681 -0.00588993 0.0218879 0.00105349 -83.7274 64.3657 55.446 -0.0304961 -0.0430569 -0.428179 0 0 -0.000120112 
233 -0.00896703 -0.00221388 0.0193747 0.000903617 -92.3554 -25.2756 39.915 -0.0665502 0.106946 -0.225848 0 0 -7.57968e-05 
370 -0.00998598 -0.00180862 0.0241628 0.000988919 11.479 14.5139 6.13632 0.0220548 0.0809674 -0.337954 0 0 -9.93528e-05 
2292 -0.00762502 -0.000546843 0.0205316 0.00089413 -13.9251 15.0605 -66.075 0.00581558 -0.0042657 -0.234634 0 0 -7.34344e-05 
274 -0.012147 -0.00586391 0.0203271 0.00108509 -0.466717 36.6849 -11.8537 0.0393784 -0.03664 -0.34811 0 0 -0.00013125 
2270 -0.00638207 -0.00602976 0.00784076 0.001052 58.9253 -67.1449 -3.11098 -0.0441541 -0.061875 -0.116824 0.012562 0.00803382 -0.00866984 
186 -0.000473901 -0.000440357 0.0146908 0.000952329 47.5397 34.965 -10.294 0.057947 -0.0474751 -0.475646 0 0 -8.87277e-05 
313 -0.0132984 -0.00323969 0.0185867 0.000961422 28.859 -36.6123 64.6618 -0.106842 0.0175817 -0.315434 0 0 -9.12934e-05 
236 -0.00110471 -0.00881306 0.0204481 0.000884979 -32.1316 10.8969 9.02684 0.0116361 0.0752249 -0.333691 0 0 -7.12027e-05 
405 -0.00252333 -0.0105215 0.0207347 0.00108781 -11.7963 58.17 -48.157 -0.00323201 0.0390355 -0.262956 0 0 -0.000132236 
2299 -0.00271624 -0.0135492 0.021686 0.000886642 -82.8783 68.5281 64.6314 -0.0118494 0.0954534 -0.382374 0 0 -7.16048e-05 
2314 -0.00158781 -0.0115089 0.0231258 0.000817655 -105.198 -50.642 -48.2306 0.193136 0.0587719 -0.359803 0 0 -5.61576e-05 
323 -0.00326112 -0.00547241 0.0203916 0.00107932 74.6139 65.3062 -50.0266 -0.0157871 0.126196 -0.334019 0 0 -0.000129166 
354 -0.00715269 -0.0114286 0.0186067 0.0011036 34.1574 9.7573 -225.369 0.0823998 0.0271903 -0.378972 0 0 -0.000138082 
338 -0.00997649 -0.00423024 0.0189751 0.00115822 65.3262 -13.9927 -9.89098 -0.0169075 0.0927982 -0.287542 0 0 -0.000159614 
384 -0.0117047 -0.00762843 0.0189012 0.000741912 0 0 0 0 0 -0.392302 0 0 -4.19522e-05 
221 -0.0067068 -0.0116149 0.00827643 0.00110469 -10.1542 -12.3748 17.1736 -0.0650508 0.0230412 -0.203252 0 0 -0.000138489 
336 -0.00732221 -0.00488894 0.0241217 0.000996018 -66.9356 20.0654 -26.4924 0.102057 -0.0287154 -0.373722 0 0 -0.000101508 
2272 -0.00522593 -0.00952723 0.00985839 0.00110938 -50.2615 36.8724 20.1407 -0.0674885 0.0913104 -0.275303 0 0 -0.000140263 
2290 -0.00021213 -0.010275 0.00769357 0.000990251 -91.4134 74.4431 -40.2058 0.0345402 -0.0946582 -0.321185 0 0 -9.97547e-05 
266 -0.0123395 -0.0051906 0.0227447 0.00105759 -20.9412 -17.862 -15.7473 0.0166231 0.0827048 -0.280362 0.00315306 -0.00609255 -0.00310333 
44 -0.0022678 -0.00109892 0.0154379 0.000975739 -77.8019 -7.4725 -61.5898 0.0252824 -0.0132256 -0.356588 0 0 -9.54331e-05 
379 -0.00202066 -0.0136894 0.0246366 0.00101303 40.9501 -15.4507 -19.1646 0.0016434 0.0193682 -0.352113 0 0 -0.000106798 
70 -0.00461378 -0.00516603 0.00895124 0.00100435 -64.8008 120.604 -69.1519 0.0495411 0.0953512 -0.0356484 0 0 -0.000104077 
94 -0.00169743 -0.00582571 0.00933505 0.000931195 141.799 165.235 47.9995 -0.0181705 0.238138 -0.252271 0.000160062 -0.0011816 -0.000445524 
2315 -0.00235916 -0.00229589 0.0245824 0.00107842 -8.29575 -17.385 -29.4819 0.0883151 0.0648558 -0.256685 0 0 -0.000128842 
211 -0.0132667 -0.00415317 0.00840709 0.00104641 -11.213 -15.0014 27.1989 -0.0202405 0.0585245 -0.242769 -0.00386348 -0.000150839 -0.00146946 
52 -0.0111685 -0.00422177 0.00897436 0.00113249 -0.706987 0.607956 -1.93923 -0.0521582 -0.0227066 -0.358456 0.00386348 0.000150839 0.00120254 
198 -0.00797782 -0.00458824 0.00783005 0.000994448 -29.6141 -63.1768 -31.9522 0.134025 -0.0223671 -0.248355 0 0 -0.000101029 
2331 -0.00576428 -0.0119307 0.0229694 0.000933139 -51.6041 1.80881 -25.3069 0.0274922 0.0732143 -0.375689 0 0 -8.34712e-05 
142 -0.0113814 -0.00194187 0.0162464 0.00107615 37.7281 14.6476 -48.7833 0.00556735 0.0687995 -0.315319 0 0 -0.000128033 
73 -0.0138714 -0.00200378 0.00809353 0.000906116 85.6003 14.7311 -14.318 -0.199753 -0.00287288 0.104075 0 0 -7.64274e-05 
391 -0.0131446 -0.00348185 0.0237862 0.00110768 -17.4017 8.20471 60.8608 0.000193253 0.0233254 -0.295829 -0.00567232 -0.000498426 0.00758083 
127 -0.00632008 -0.000353399 0.00767957 0.000903363 200.239 -56.3394 -2.66378 -0.073059 -0.177066 -0.335747 0.0132467 -0.00710383 -0.00167115 
259 -0.00620938 -0.00687507 0.0249635 0.00108395 -63.4266 22.9429 28.1268 -0.0162743 0.0172034 -0.367804 0 0 -0.000130837 
206 -0.0120272 -0.00114403 0.00772419 0.000954634 -1.87075 -38.5276 -25.0751 -0.0699078 -0.0485605 -0.0774297 0 0 -8.93734e-05 
2300 -0.0038205 -0.00712272 0.0240796 0.00104851 33.8679 34.2785 -16.2813 0.0185333 0.0734798 -0.392522 0 0 -0.000118418 
2307 -0.0065228 -0.0016919 0.0231225 0.00123108 -35.1406 -11.1229 18.8757 -0.0108704 -0.00939863 -0.402763 -0.000495193 0.000138806 -0.00137435 
230 -0.00665145 -0.0120138 0.0210483 0.00110585 -22.5952 -6.75174 1.1544 -0.0655834 0.0178474 -0.375327 0 0 -0.000138928 
215 -0.0137634 -0.00167861 0.0172984 0.000946132 -33.4897 16.8106 -61.3683 -0.0423804 0.0425614 -0.471706 0 0 -8.70066e-05 
195 -0.00171654 -0.00063229 0.00792768 0.000943893 -13.4073 -29.7309 16.3138 -0.0234126 -0.0287437 -0.173786 0 0 -8.63906e-05 
63 -0.003314 -0.0136088 0.00755407 0.000920048 45.5092 35.4908 -30.3529 0.179253 -0.226621 -0.405488 0 0 -8.00071e-05 
2305 -0.00852765 -0.00753915 0.0226916 0.00111085 -37.3074 -0.922269 -28.9699 -0.00450651 -0.025902 -0.356181 0 0 -0.000140821 
84 -0.00749645 -0.00941242 0.00892567 0.00115261 -38.5494 -59.3928 -46.5443 -0.059346 -0.0616483 -0.261125 0 0 -0.000157304 
179 -0.00564151 -0.0121025 0.0102923 0.00103328 27.3442 7.11628 26.171 -0.0271421 0.0264817 -0.281572 0 0 -0.000113333 
97 -0.00324662 -0.0120754 0.00909699 0.00105341 7.6625 28.4908 0.199266 0.0338595 0.025336 -0.458109 0 0 -0.000120085 
121 -0.000710154 -0.0115745 0.00925281 0.000994284 4.20249 -14.2016 19.49 -0.0543183 -0.00396428 -0.47147 0 0 -0.000100978 
61 -0.010067 -0.00957863 0.00767961 0.00103619 -37.6326 26.3217 17.2921 0.156886 -0.185154 -0.0743093 0 0 -0.000114291 
92 -0.00574428 -0.00793928 0.00826517 0.000855578 -107.858 -104.494 104.287 0.0196477 0.225893 -0.0434688 0.00340598 -0.00120091 0.00615176 
184 -0.00168369 -0.00915546 0.0089113 0.00117021 -0.893477 -25.3189 -45.5101 0.0338778 0.0574881 -0.274472 0 0 -0.000164623 
189 -0.0114982 -0.00617667 0.00772635 0.000989016 -42.5074 -107.627 -27.2428 -0.0718713 -0.0294107 -0.300464 0 0 -9.9382e-05 
156 -0.0100902 -0.00654386 0.00932854 0.00090034 7.1766 -10.8339 -48.9005 -0.0555476 0.0282647 -0.184405 0 0 -7.49752e-05 
32 -0.00595428 -0.00385039 0.00826987 0.000928508 159.617 -68.7423 136.049 0.202508 -0.0131864 -0.337479 0 0 -8.22347e-05 
170 -0.0125428 -0.00604968 0.00950489 0.000951161 46.6806 -16.7856 40.179 0.0761288 -0.0657899 -0.185885 0 0 -8.84015e-05 
96 -0.00909806 -0.00397748 0.00935364 0.000906593 41.1898 3.46972 2.08403 -0.0468578 0.0299113 -0.171601 0 0 -7.6548e-05 
43 -0.00418552 -0.00356542 0.0107257 0.00102719 -6.84913 -162.131 54.2189 -0.010349 0.112985 -0.338354 0 0 -0.000111338 
55 -0.00206509 -0.0037613 0.00976891 0.00121081 6.15211 31.5121 -27.9437 -0.0553352 0.0973174 -0.30159 -0.000160062 0.0011816 0.000180215 
108 -0.0125773 -0.00245968 0.00970747 0.00108869 -42.86 47.2001 48.8024 0.048559 -0.0272361 -0.164507 0 0 -0.000132559 
78 -0.0106046 -0.00221316 0.00865409 0.000969333 -89.165 -17.9683 -48.5615 0.0729 0.00817795 -0.404578 -0.00235784 -0.000550694 0.00421573 
40 -0.00723858 -0.00233288 0.00799434 0.00103692 36.8276 -54.0648 -2.02162 -0.0175426 0.0682565 -0.177266 -0.00295291 -0.00550461 -0.00712483 
174 -0.00362348 -0.00168691 0.00800029 0.00088178 86.2311 53.5283 12.5414 0.119679 -0.149067 -0.281875 0.00218311 -0.00741054 0.00988587 
187 -0.0138307 -0.000572191 0.00942546 0.00104611 -30.1823 -43.9081 -1.12297 0.0598117 -0.0524776 -0.227856 0 0 -0.000117605 
116 -0.0112515 -0.000208897 0.00936581 0.000952777 42.7983 21.5048 43.6172 0.0415397 0.0679317 -0.167486 0 0 -8.8853e-05 
133 -0.00882728 -0.000929144 0.00900418 0.000966143 -106.479 -67.4308 29.6423 -0.15066 0.110156 -0.151119 0 0 -9.26449e-05 
182 -0.00648344 -0.00128485 0.00932385 0.000829612 -63.1014 41.8604 -31.0748 0.118695 0.0574019 -0.1926 0.00295291 0.00550461 0.00695164 
2328 -0.00451752 -0.00917625 0.0233931 0.000943541 14.0776 19.6981 -33.472 -0.0217695 0.0230664 -0.323825 0 0 -8.62938e-05 
330 -0.0107388 -0.00419545 0.024305 0.0010121 -15.2778 23.2704 14.4704 0.0464084 -0.024707 -0.402773 0 0 -0.000106504 
58 -0.0020216 -0.0134884 0.0101323 0.00082651 37.4387 -16.9556 16.0602 -0.0844459 0.0578863 -0.372456 0 0 -5.80019e-05 
2323 -0.0135946 -0.00046342 0.0226287 0.0010119 48.3961 17.4981 2.55619 0.0251951 -0.0336929 -0.361231 0 0 -0.000106443 
218 -0.00955891 -0.00989976 0.0098822 0.000923132 30.3198 -6.76796 -2.91144 -0.064545 0.0249657 -0.404431 0 0 -8.08145e-05 
161 -0.00725686 -0.0109622 0.0118906 0.00108471 -19.4354 -16.8006 33.1356 -0.0189908 0.0573239 -0.331538 0 0 -0.000131112 
42 -0.00190194 -0.0120895 0.0123255 0.00110813 10.1577 -6.94148 21.0938 -0.030587 0.00353747 -0.360488 0 0 -0.000139787 
2291 -0.00911934 -0.00778382 0.0158458 0.00118027 -190.509 150.798 -38.729 -0.0385728 0.0244366 -0.347532 0 0 -0.000168905 
147 -0.00804767 -0.00688633 0.00878067 0.00106292 -81.8697 34.6078 5.29401 -0.0599105 0.0964668 -0.271609 -0.012562 -0.00803382 0.00842687 
41 -0.00804698 -0.00878574 0.0109122 0.000959181 13.9514 -16.7644 44.3954 -0.104018 0.0917557 -0.219014 0 0 -9.06565e-05 
193 -0.00546184 -0.00814832 0.0113157 0.00085049 -22.1976 -3.14353 19.3953 0.0217582 -0.158171 -0.296117 0 0 -6.31982e-05 
113 -0.00292272 -0.0106472 0.0105717 0.000925995 66.9312 41.3328 -42.5727 0.0940746 -0.0289414 -0.364313 0 0 -8.15687e-05 
31 -0.000856273 -0.00748065 0.0104635 0.000989784 62.0058 75.9737 -79.5779 0.24816 -0.177357 -0.190206 0 0 -9.96138e-05 
151 -0.000836474 -0.00967471 0.0122919 0.000954602 5.81248 61.1763 5.07545 0.0140243 0.00276013 -0.273257 0 0 -8.93643e-05 
163 -0.0106934 -0.00536986 0.0109819 0.00105769 -91.2379 94.0478 10.6638 -0.0976477 -0.0851199 -0.294037 0 0 -0.000121555 
102 -0.00620563 -0.00610019 0.0101281 0.00109797 -36.6939 61.5187 57.9587 -0.0938058 -0.0528967 -0.417595 0 0 -0.000135977 
150 -0.00351835 -0.00716974 0.00950554 0.00113822 86.8802 28.6442 -2.59798 0.0633837 -0.103938 -0.314137 0 0 -0.000151486 
2271 -0.0136531 -0.00328522 0.0123962 0.000937471 19.7308 76.9724 10.5888 0.021139 -0.140521 -0.230342 0.00267522 0.000578083 -3.68912e-05 
72 -0.0131162 -0.00473141 0.0109982 0.000869335 8.25876 52.3428 -31.1186 0.0698288 0.0878202 -0.356345 0 0 -6.74932e-05 
83 -0.00872338 -0.00430571 0.0118627 0.00126778 52.8315 -2.2841 -18.9342 0.0548402 0.0102966 -0.316518 0 0 -0.000209331 
171 -0.000811351 -0.00566688 0.0121006 0.00118035 10.5178 8.89485 14.3698 -0.0478564 -0.00828483 -0.250811 0 0 -0.000168941 
125 -0.0110964 -0.00155246 0.0108502 0.000926884 -14.4024 96.0461 76.1926 -0.0920484 0.00542849 -0.0730594 0 0 -8.18039e-05 
185 -0.00917676 -0.00210092 0.0109229 0.00105335 84.9221 43.4424 4.13782 0.144773 0.0497846 -0.303902 0 0 -0.000120065 
145 -0.00723174 -0.0035017 0.0100612 0.00105858 46.545 64.9972 59.9054 -0.132814 0.00904375 -0.165608 0 0 -0.000121862 
109 -0.00384738 3.14597e-05 0.0103371 0.00102261 -15.6858 40.1087 65.1442 0.179648 0.121241 -0.253278 0.00258742 -0.00427564 -0.00407786 
51 -0.00125784 -0.00134916 0.0110758 0.00101008 19.7096 -25.0655 29.5016 0.0408344 -0.0290594 -0.376397 0 0 -0.000105868 
64 -1.15061e-05 -0.00286569 0.0109654 0.000955594 3.75658 44.4275 -28.8068 0.0737128 0.00153199 -0.323848 0 0 -8.96433e-05 