ITEM: TIMESTEP
50000
ITEM: NUMBER OF ATOMS
4485
ITEM: BOX BOUNDS ff ff ff
-2.1 2.1
-0.1 3.1
-3 2.1
ITEM: ATOMS x y z radius 
-0.33548 0.126946 -0.607026 0.00505844 
-0.262654 0.557174 -0.528274 0.00660145 
-0.341918 0.287538 -0.496664 0.0058075 
-0.050304 0.356707 -0.489326 0.0168384 
-0.0259733 0.725412 -0.487103 0.0126682 
-0.157928 0.952359 -0.490783 0.00630801 
-0.0331778 0.196191 -0.468027 0.00894613 
-0.160357 0.246987 -0.477454 0.00937783 
-0.106828 0.351149 -0.48111 0.0130045 
-0.0692015 0.688855 -0.477233 0.0187595 
-0.113639 0.832164 -0.467755 0.0162785 
-0.187489 0.951147 -0.457013 0.014118 
-0.225944 0.973407 -0.470348 0.00617207 
-0.144793 1.06195 -0.471048 0.00598302 
-0.108996 1.2076 -0.472603 0.00794905 
-0.052472 1.20737 -0.471192 0.00970633 
-0.128728 1.31522 -0.472423 0.0115688 
-0.0352157 1.48134 -0.479175 0.00923402 
-0.201992 -0.103706 -0.431724 0.0108715 
-0.0763564 -0.0488185 -0.428388 0.0154707 
-0.143947 -0.0465278 -0.429339 0.00864889 
-0.0316733 0.0106351 -0.427415 0.0136615 
-0.0977975 0.170544 -0.44362 0.0131428 
-0.0160146 0.174329 -0.417828 0.00654234 
-0.191156 0.241362 -0.434574 0.011953 
-0.138817 0.299181 -0.440067 0.0188652 
-0.217923 0.486725 -0.419421 0.0142006 
-0.194966 0.537829 -0.443274 0.0137348 
-0.191593 0.604367 -0.419798 0.00654094 
-0.177447 0.630401 -0.430005 0.011332 
-0.148482 0.698805 -0.444217 0.0154976 
-0.0141043 0.707645 -0.418298 0.00934422 
-0.139634 0.744654 -0.414945 0.0120301 
-0.0358198 0.734568 -0.414868 0.0189252 
-0.0654729 0.856124 -0.425355 0.00530783 
-0.0655612 0.871118 -0.436895 0.011591 
-0.144014 0.90519 -0.446073 0.0077826 
-0.159745 0.921305 -0.434833 0.0100461 
-0.071831 0.995054 -0.424797 0.00533902 
-0.155789 1.1334 -0.45057 0.0136041 
-0.105921 1.13463 -0.424363 0.0147834 
-0.254003 1.32624 -0.416057 0.00694256 
-0.191729 1.45741 -0.423083 0.0154919 
-0.00526802 0.447442 0.12256 0.00627552 
-0.00251897 1.07491 -0.186629 0.0171687 
-0.257342 -0.0167806 -0.382206 0.0122759 
-0.215457 -0.00283029 -0.409712 0.0188475 
-0.0743357 0.0390894 -0.391465 0.019619 
-0.0377952 0.0503076 -0.404627 0.00500082 
-0.17942 0.134558 -0.405041 0.0188318 
-0.0194816 0.218725 -0.40132 0.00800824 
-0.187365 0.267781 -0.385939 0.00543066 
-0.312167 0.413958 -0.393768 0.00807615 
-0.260255 0.390194 -0.41497 0.00579136 
-0.138944 0.520015 -0.389753 0.0116933 
-0.0242877 0.555655 -0.385992 0.0167096 
-0.215681 0.571615 -0.390043 0.00697025 
-0.147325 0.663616 -0.401578 0.00847959 
-0.108312 0.670225 -0.411104 0.0168648 
-0.0714936 0.681465 -0.398846 0.0198245 
-0.28098 0.821408 -0.385102 0.00579011 
-0.239875 0.79595 -0.385785 0.00720426 
-0.113661 0.806714 -0.383284 0.00752752 
-0.141007 0.824703 -0.407396 0.0132751 
-0.239073 1.01071 -0.396043 0.00725194 
-0.197328 0.984138 -0.403253 0.0199818 
-0.19269 1.03783 -0.383162 0.0152304 
-0.159566 1.01161 -0.381911 0.0175518 
-0.0637077 1.02403 -0.397565 0.0179425 
-0.0250836 1.02311 -0.387651 0.00933928 
-0.12157 1.12912 -0.399774 0.0107242 
-0.143552 1.17785 -0.399405 0.0140204 
-0.243896 1.19865 -0.387524 0.0126482 
-0.102069 1.19964 -0.412474 0.00704842 
-0.109162 1.23141 -0.411186 0.0189121 
-0.181507 1.27052 -0.41147 0.00617001 
-0.13978 1.33386 -0.380485 0.0195619 
-0.274763 1.40693 -0.399742 0.00977964 
-0.076511 1.43135 -0.40356 0.0162754 
-0.537947 0.0423038 -0.363449 0.00694188 
-0.110237 0.116654 -0.362171 0.0189832 
-0.0625135 0.150717 -0.366028 0.00749705 
-0.0445118 0.224439 -0.353508 0.0135177 
-0.278041 0.275844 -0.376858 0.0194702 
-0.0468872 0.265012 -0.359749 0.0111021 
-0.32861 0.300179 -0.352846 0.0133138 
-0.314329 0.379492 -0.354798 0.0185828 
-0.132184 0.368193 -0.362292 0.0146428 
-0.0940631 0.396716 -0.370052 0.0186227 
-0.0533678 0.396495 -0.372151 0.0175 
-0.269761 0.43902 -0.371033 0.00984662 
-0.0284241 0.535367 -0.351426 0.00710516 
-0.219024 0.625066 -0.380239 0.0191915 
-0.0548082 0.630053 -0.358374 0.0172014 
-0.19744 0.690402 -0.345108 0.00608477 
-0.099046 0.697685 -0.371997 0.0088186 
-0.0918167 0.713732 -0.348526 0.0161311 
-0.0194181 0.7076 -0.37923 0.0193855 
-0.129418 0.728833 -0.357325 0.0170863 
-0.340749 0.782675 -0.348442 0.013724 
-0.183034 0.845061 -0.378975 0.0154782 
-0.0159696 0.8569 -0.355862 0.00739395 
-0.164395 0.948053 -0.349147 0.0167128 
-0.12577 0.941091 -0.345063 0.00935889 
-0.103923 0.969087 -0.37796 0.016886 
-0.00351859 0.936178 -0.380068 0.00888831 
-0.202054 0.973982 -0.349394 0.00576956 
-0.0404035 1.04281 -0.371857 0.008674 
-0.245959 1.06852 -0.370327 0.0144712 
-0.191939 1.06611 -0.364504 0.00843946 
-0.133448 1.07413 -0.35375 0.0194492 
-0.0812803 1.1403 -0.351117 0.0108069 
-0.101166 1.16913 -0.35688 0.0192736 
-0.0173219 1.18456 -0.347003 0.0171082 
-0.290378 1.21729 -0.375847 0.0186808 
-0.0450051 1.20262 -0.349436 0.0105435 
-0.173341 1.25956 -0.350774 0.00504672 
-0.267112 1.26039 -0.350847 0.00732715 
-0.22967 1.29209 -0.353404 0.0174914 
-0.0698557 1.28674 -0.358279 0.0106013 
-0.195565 1.31414 -0.36185 0.0118137 
-0.108945 1.3092 -0.367293 0.0104311 
-0.257506 1.34758 -0.370601 0.0107828 
-0.21091 1.34551 -0.369856 0.015863 
-0.136476 1.35631 -0.350958 0.00622815 
-0.179893 1.38265 -0.345863 0.0100799 
-0.19051 1.4178 -0.347209 0.0106075 
-0.167999 1.40452 -0.352037 0.00902556 
-0.0500048 1.42011 -0.359539 0.00978562 
-0.0781616 1.44181 -0.3464 0.0127187 
-0.0896974 0.977385 0.510748 0.0176055 
-0.180264 0.498413 0.521895 0.017572 
-0.0202111 0.126722 0.512243 0.0109508 
-0.00596489 0.135411 0.102957 0.00862652 
-0.340563 -0.0733284 -0.311858 0.00703085 
-0.123654 -0.0597822 -0.338169 0.012241 
-0.140062 -0.00487233 -0.348074 0.019363 
-0.111353 0.0698478 -0.331578 0.0149308 
-0.136816 0.0996769 -0.338821 0.0165414 
-0.245773 0.104399 -0.324007 0.00691939 
-0.10832 0.146519 -0.325893 0.00804134 
-0.194227 0.181957 -0.317194 0.0183307 
-0.148159 0.250964 -0.342143 0.00746725 
-0.0796625 0.208012 -0.343714 0.0101618 
-0.30071 0.27403 -0.336328 0.010109 
-0.207504 0.277603 -0.327457 0.0183953 
-0.0129045 0.283044 -0.319329 0.0162707 
-0.346639 0.355547 -0.321283 0.0198919 
-0.304097 0.34891 -0.330006 0.0156816 
-0.340224 0.385808 -0.343362 0.00682876 
-0.241434 0.370261 -0.343694 0.0158264 
-0.212625 0.393054 -0.324741 0.00750771 
-0.0869499 0.404806 -0.317399 0.014029 
-0.0398993 0.427573 -0.329748 0.0158198 
-0.0450864 0.457761 -0.32107 0.00627269 
-0.000366584 0.595537 -0.326392 0.0171925 
-0.262233 0.619777 -0.330247 0.0174324 
-0.14119 0.65376 -0.345711 0.00735138 
-0.0318005 0.667406 -0.33665 0.0180419 
-0.00222934 0.673304 -0.340983 0.0123951 
-0.0369582 0.718264 -0.314879 0.00694904 
-0.0887491 0.745523 -0.339141 0.0121411 
-0.154514 0.759775 -0.335439 0.0166618 
-0.107959 0.794605 -0.340692 0.0123852 
-0.250117 0.857502 -0.322837 0.0103133 
-0.203265 0.835692 -0.317523 0.00901486 
-0.143179 0.844524 -0.341095 0.0164036 
-0.170746 0.89292 -0.322029 0.01624 
-0.278079 0.931723 -0.329692 0.00641299 
-0.0308942 0.918986 -0.326069 0.0178088 
-0.143854 0.940229 -0.314386 0.00648848 
-0.0944734 0.944802 -0.336483 0.0116954 
-0.0889466 1.00484 -0.323944 0.0106392 
-0.25207 1.00986 -0.324968 0.014451 
-0.184625 1.02595 -0.33306 0.0188538 
-0.13594 1.01856 -0.330538 0.0119362 
-0.0263133 1.01017 -0.322214 0.00649299 
-0.327813 1.05599 -0.329862 0.0198841 
-0.346316 1.07387 -0.33904 0.00523293 
-0.073804 1.07366 -0.314462 0.00647783 
-0.0926434 1.09648 -0.328845 0.00912981 
-0.272325 1.14065 -0.338198 0.0135765 
-0.0331762 1.13695 -0.335151 0.00880672 
-0.0514749 1.21189 -0.320482 0.00648516 
-0.243861 1.284 -0.311486 0.0140548 
-0.122858 1.2654 -0.329639 0.0195149 
-0.182426 1.30887 -0.315807 0.0103461 
-0.125169 1.30587 -0.333485 0.0177827 
-0.0794004 1.3078 -0.344681 0.0132733 
-0.265774 1.36839 -0.321461 0.018609 
-0.16347 1.36595 -0.317557 0.00524861 
-0.200179 1.39959 -0.316927 0.0142962 
-0.125299 1.39651 -0.342144 0.00604751 
-0.364694 1.44355 -0.328363 0.0113185 
-0.112019 1.40718 -0.322241 0.00636665 
-0.0467015 1.43867 -0.311302 0.0133667 
-0.0173696 1.4196 -0.342856 0.0138682 
-0.157474 1.44386 -0.309579 0.0129486 
-0.0863308 1.38958 0.474312 0.00852411 
-0.00133827 0.453683 0.064728 0.00949395 
-0.190827 -0.0967087 -0.280326 0.00909084 
-0.331801 -0.0118435 -0.306466 0.0152677 
-0.219958 -0.0192988 -0.296202 0.00905466 
-0.1772 0.0130307 -0.275672 0.0074524 
-0.0824536 0.0167576 -0.295567 0.0196574 
-0.043951 0.0237276 -0.303041 0.0171147 
-0.19014 0.0402375 -0.306168 0.0199072 
-0.211175 0.0806483 -0.295184 0.0178674 
-0.0777242 0.127523 -0.29904 0.00787116 
-0.0700408 0.117094 -0.312504 0.00926814 
-0.17997 0.16755 -0.294166 0.00882695 
-0.0878327 0.160229 -0.289731 0.00837322 
-0.0282623 0.146301 -0.289463 0.00995087 
-0.239162 0.222446 -0.28607 0.00550923 
-0.240838 0.289287 -0.275173 0.00825314 
-0.315581 0.320542 -0.303221 0.0178241 
-0.237614 0.359918 -0.284239 0.016459 
-0.155289 0.358847 -0.294777 0.0122311 
-0.460708 0.395098 -0.286709 0.0173073 
-0.335901 0.411842 -0.289583 0.0152136 
-0.34265 0.442895 -0.284521 0.0163299 
-0.235237 0.443549 -0.290022 0.00665163 
-0.0372593 0.43852 -0.311799 0.00502395 
-0.25506 0.471467 -0.306002 0.00704033 
-0.331645 0.517609 -0.300024 0.0171224 
-0.0285615 0.524872 -0.316846 0.0108267 
-0.100949 0.587189 -0.276738 0.014199 
-0.0389333 0.573304 -0.283175 0.0144922 
-0.206567 0.677347 -0.276751 0.00544666 
-0.073649 0.713675 -0.28362 0.0107425 
-0.0153418 0.69786 -0.294792 0.0148323 
-0.178476 0.735137 -0.276714 0.0193487 
-0.130187 0.757049 -0.294088 0.0191614 
-0.0824868 0.747813 -0.274575 0.00515885 
-0.376685 0.808826 -0.305128 0.0138806 
-0.222096 0.828463 -0.293806 0.00695675 
-0.183185 0.796402 -0.291667 0.0122992 
-0.172736 0.828476 -0.285766 0.0151364 
-0.349187 0.863612 -0.299814 0.00501617 
-0.27532 0.922176 -0.302729 0.0179895 
-0.196013 0.943927 -0.285624 0.0161578 
-0.120088 0.956294 -0.292388 0.00874139 
-0.0789536 0.950949 -0.276252 0.0138738 
-0.0222663 0.947527 -0.283237 0.0174887 
-0.015666 0.960906 -0.306032 0.00858827 
-0.231785 1.00095 -0.296576 0.00656912 
-0.376365 1.04311 -0.303356 0.016978 
-0.203571 1.00831 -0.298974 0.0174921 
-0.180825 1.04756 -0.286691 0.00608899 
-0.174668 1.02381 -0.305281 0.0092993 
-0.274485 1.07912 -0.285165 0.0175772 
-0.148706 1.05162 -0.307902 0.00692998 
-0.00866456 1.07655 -0.275602 0.00677456 
-0.265366 1.10792 -0.281955 0.00609809 
-0.153307 1.08458 -0.295388 0.0173931 
-0.0550969 1.09035 -0.277266 0.00500853 
-0.375883 1.14327 -0.291721 0.0187574 
-0.241327 1.12676 -0.277679 0.0146232 
-0.223425 1.16458 -0.274172 0.0150199 
-0.183945 1.17536 -0.289318 0.0157999 
-0.292848 1.20896 -0.29197 0.00558676 
-0.338393 1.25403 -0.304258 0.0177453 
-0.264206 1.24457 -0.29506 0.0144346 
-0.347751 1.28277 -0.271923 0.0195171 
-0.296444 1.26908 -0.290558 0.0116871 
-0.0348092 1.31197 -0.307223 0.00740183 
-0.280654 1.39979 -0.277142 0.00520702 
-0.19083 1.3845 -0.289427 0.0104484 
-0.0624427 1.37596 -0.301795 0.0057144 
-0.315994 1.44599 -0.281016 0.0135393 
-0.126638 1.44322 -0.281509 0.0124871 
-0.281624 1.44766 -0.296626 0.0173024 
-0.0170996 1.45881 -0.274501 0.0170401 
-0.035493 1.32002 0.472397 0.00741771 
-0.153979 -0.0330659 -0.256147 0.015512 
-0.206817 0.020678 -0.258965 0.0129596 
-0.192146 0.0200586 -0.245985 0.0058232 
-0.324215 0.0404638 -0.246128 0.0129188 
-0.286501 0.0577873 -0.236987 0.0150576 
-0.162741 0.0337253 -0.260242 0.0147374 
-0.0509993 0.0452816 -0.262704 0.0127146 
-0.321637 0.130649 -0.241684 0.00610069 
-0.139863 0.122909 -0.267368 0.00992557 
-0.37167 0.163543 -0.251942 0.0146139 
-0.329529 0.146145 -0.255141 0.0125742 
-0.0495617 0.153709 -0.272482 0.0155105 
-0.232643 0.178113 -0.253781 0.0124545 
-0.201222 0.179032 -0.249424 0.0160712 
-0.162502 0.196732 -0.256036 0.0171111 
-0.0778293 0.173003 -0.248498 0.00964873 
-0.222853 0.228167 -0.253973 0.016571 
-0.119688 0.276245 -0.246107 0.0190222 
-0.27926 0.286432 -0.251642 0.00899407 
-0.181587 0.342863 -0.266917 0.0166215 
-0.194091 0.336822 -0.24686 0.00615422 
-0.107122 0.335789 -0.275392 0.00816508 
-0.1061 0.378862 -0.288806 0.0115855 
-0.0831475 0.354743 -0.241566 0.011202 
-0.362638 0.407514 -0.251247 0.0180007 
-0.031772 0.430357 -0.248468 0.0128709 
-0.364433 0.461755 -0.238324 0.0193258 
-0.1168 0.498773 -0.25923 0.0198075 
-0.352102 0.533954 -0.260864 0.0170701 
-0.122084 0.53792 -0.247989 0.0126617 
-0.0621495 0.5496 -0.272946 0.0114947 
-0.299129 0.593685 -0.257738 0.00656177 
-0.105038 0.591089 -0.243166 0.0066546 
-0.162464 0.625357 -0.264845 0.0140505 
-0.419588 0.746056 -0.262674 0.0100034 
-0.303446 0.734216 -0.2641 0.0051946 
-0.281388 0.812072 -0.267865 0.00844067 
-0.307637 0.810702 -0.254336 0.00776567 
-0.0664143 0.833449 -0.268144 0.0171171 
-0.322755 0.924137 -0.260515 0.0197479 
-0.278109 0.932498 -0.266349 0.00832326 
-0.174041 0.956789 -0.273764 0.00870021 
-0.105502 0.959702 -0.239345 0.0182945 
-0.093672 0.957271 -0.262577 0.0067932 
-0.378897 0.978164 -0.26159 0.0185842 
-0.03333 0.992123 -0.259163 0.0169098 
-0.251343 1.03292 -0.258414 0.00519858 
-0.226294 1.02319 -0.271007 0.00726224 
-0.18102 1.02669 -0.245147 0.0134997 
-0.153065 1.02767 -0.260724 0.0183655 
-0.229876 1.07342 -0.265265 0.00833415 
-0.117545 1.05123 -0.246167 0.00911284 
-0.0732328 1.0682 -0.24886 0.00934915 
-0.41337 1.08847 -0.267744 0.00904339 
-0.381806 1.08264 -0.26352 0.00836799 
-0.244672 1.15269 -0.254892 0.00796466 
-0.0801223 1.1433 -0.246333 0.00817195 
-0.0471062 1.13666 -0.244312 0.0199864 
-0.361044 1.17447 -0.259023 0.0150143 
-0.303568 1.1578 -0.260172 0.0174261 
-0.129936 1.16658 -0.259929 0.0160218 
-0.0731618 1.17565 -0.267325 0.0152463 
-0.344728 1.19669 -0.242649 0.0103279 
-0.325185 1.22407 -0.240555 0.0142358 
-0.293739 1.21083 -0.263356 0.0175331 
-0.0787562 1.21704 -0.24483 0.0142189 
-0.0474293 1.21654 -0.238382 0.0085061 
-0.401937 1.24993 -0.255474 0.018061 
-0.290113 1.24721 -0.245865 0.00952677 
-0.375964 1.26888 -0.258497 0.0112572 
-0.239286 1.30939 -0.240763 0.0146262 
-0.256819 1.35941 -0.249194 0.0102545 
-0.178403 1.35692 -0.263938 0.017734 
-0.0131353 1.33891 -0.25119 0.00801393 
-0.232222 1.39027 -0.27045 0.00973912 
-0.141317 1.42416 -0.244392 0.0139174 
-0.149888 1.42662 -0.271495 0.0125178 
-0.149052 1.47912 -0.255154 0.0150331 
-0.268257 -0.101519 -0.2089 0.0188831 
-0.196211 -0.108262 -0.236639 0.0163261 
-0.152404 -0.105723 -0.220846 0.0192456 
-0.373412 -0.0444856 -0.222927 0.016103 
-0.20194 -0.0454024 -0.219615 0.0162632 
-0.137194 -0.00567086 -0.211438 0.00562529 
-0.0861973 -0.0185337 -0.234288 0.0182332 
-0.390609 0.0107818 -0.227489 0.017578 
-0.154836 0.00991994 -0.216411 0.00908298 
-0.0315099 0.0039272 -0.236476 0.0193461 
-0.0437157 0.0371927 -0.219966 0.0125151 
-0.474268 0.0887423 -0.224169 0.0172514 
-0.329358 0.092183 -0.216231 0.016257 
-0.246973 0.0816657 -0.228761 0.0156185 
-0.210629 0.083525 -0.201379 0.00684255 
-0.129677 0.0743879 -0.209502 0.0148936 
-0.0836075 0.110903 -0.232864 0.0126404 
-0.126769 0.121633 -0.218479 0.0151237 
-0.207333 0.17113 -0.217183 0.0144303 
-0.236703 0.198744 -0.206747 0.0159824 
-0.111482 0.187517 -0.233688 0.0191865 
-0.0835115 0.189836 -0.218662 0.0090135 
-0.0746439 0.204412 -0.22792 0.00797939 
-0.415011 0.219978 -0.234225 0.00995896 
-0.401504 0.242172 -0.231934 0.00754341 
-0.299112 0.271274 -0.206902 0.0172963 
-0.266517 0.26945 -0.215556 0.0154435 
-0.0466093 0.341276 -0.207118 0.0190051 
-0.415153 0.33859 -0.213955 0.0160049 
-0.142363 0.40783 -0.232612 0.00676339 
-0.427522 0.450211 -0.204848 0.00840131 
-0.0323103 0.42857 -0.21082 0.00973749 
-0.13055 0.477171 -0.217806 0.0163572 
-0.38187 0.508461 -0.211465 0.0125452 
-0.279097 0.529939 -0.231497 0.0058247 
-0.103107 0.500045 -0.201495 0.00947787 
-0.0724364 0.503681 -0.206952 0.00905874 
-0.00606369 0.499201 -0.215473 0.0188747 
-0.332646 0.539995 -0.215653 0.00793273 
-0.0560297 0.5484 -0.22183 0.018792 
-0.388449 0.594543 -0.23247 0.00642454 
-0.372549 0.585776 -0.207896 0.00697721 
-0.286145 0.574831 -0.231167 0.0165749 
-0.0394671 0.579446 -0.208304 0.0173443 
-0.269721 0.65847 -0.225002 0.0175003 
-0.180405 0.686886 -0.204348 0.00723358 
-0.206471 0.697241 -0.221836 0.0193083 
-0.0861377 0.72278 -0.227721 0.011782 
-0.346225 0.799429 -0.236415 0.00688417 
-0.247236 0.809307 -0.229309 0.0075935 
-0.261472 0.836383 -0.220447 0.0157763 
-0.388179 0.875495 -0.21474 0.0195085 
-0.0649399 0.906307 -0.208271 0.0104079 
-0.146457 0.94283 -0.203289 0.0167372 
-0.120446 0.929551 -0.207919 0.0110794 
-0.162015 0.945202 -0.23742 0.0129891 
-0.0585101 0.971725 -0.217907 0.0114628 
-0.0123397 0.957267 -0.23384 0.00967582 
-0.230044 1.00787 -0.210293 0.00598674 
-0.201376 0.997244 -0.211217 0.0116265 
-0.166587 1.00367 -0.221934 0.0194169 
-0.391092 1.0162 -0.205481 0.0117743 
-0.284717 1.04411 -0.212545 0.0140694 
-0.276952 1.02043 -0.22247 0.0128069 
-0.246656 1.04081 -0.222906 0.00809482 
-0.290607 1.0693 -0.211072 0.00955089 
-0.238433 1.08201 -0.239559 0.0176204 
-0.263323 1.09431 -0.215393 0.0141421 
-0.398463 1.13358 -0.235698 0.00649583 
-0.0760135 1.1193 -0.233088 0.0114866 
-0.409809 1.18619 -0.205702 0.00761999 
-0.36593 1.17541 -0.22247 0.01738 
-0.26743 1.1652 -0.236039 0.011635 
-0.2009 1.19001 -0.219069 0.0177109 
-0.157741 1.19006 -0.210266 0.0143487 
-0.342126 1.2116 -0.215065 0.015125 
-0.0548789 1.20552 -0.218379 0.00573801 
-0.0061814 1.21298 -0.203514 0.00544632 
-0.243202 1.23335 -0.210556 0.00542468 
-0.150183 1.21904 -0.232051 0.0154541 
-0.374764 1.29424 -0.21653 0.0136904 
-0.210451 1.30736 -0.23163 0.0149026 
-0.186442 1.32833 -0.212774 0.0120719 
-0.071862 1.3185 -0.210879 0.0176426 
-0.348067 1.34573 -0.205698 0.0115467 
-0.226795 1.36071 -0.208465 0.0173065 
-0.375317 1.40268 -0.214973 0.0177895 
-0.172613 1.38497 -0.203483 0.00838828 
-0.314344 1.4203 -0.203945 0.0168724 
-0.193999 1.42457 -0.2074 0.0158975 
-0.183208 1.42827 -0.23391 0.00619174 
-0.162022 1.42461 -0.20792 0.0160841 
-0.0332254 1.43106 -0.215091 0.015539 
-0.249994 1.46866 -0.230358 0.01711 
-0.0262424 1.45605 -0.227664 0.0092107 
-0.052067 1.18302 0.484879 0.019368 
-0.128278 -0.0968377 -0.193806 0.00547179 
-0.269339 -0.0283413 -0.174074 0.0061406 
-0.212291 0.00478944 -0.175567 0.0091336 
-0.338985 0.059502 -0.181361 0.0185043 
-0.366104 0.107412 -0.165824 0.0114153 
-0.172798 0.0708294 -0.199269 0.0187748 
-0.362187 0.104882 -0.196002 0.00873886 
-0.0977539 0.14362 -0.167543 0.0199756 
-0.150613 0.166936 -0.18956 0.00961013 
-0.136932 0.199175 -0.194814 0.0126958 
-0.422835 0.233308 -0.170117 0.0122123 
-0.253113 0.230094 -0.200876 0.018625 
-0.355052 0.274234 -0.179569 0.0175363 
-0.252361 0.28171 -0.182716 0.0170859 
-0.177754 0.267556 -0.189819 0.0122337 
-0.262654 0.31776 -0.17425 0.0105088 
-0.0282421 0.289476 -0.177882 0.0132739 
-0.377502 0.331659 -0.186662 0.00872441 
-0.27261 0.329278 -0.20276 0.0123058 
-0.00745824 0.379293 -0.175388 0.0186164 
-0.147829 0.411931 -0.192411 0.0164731 
-0.0782345 0.451144 -0.201465 0.0125063 
-0.164224 0.476008 -0.188262 0.0125128 
-0.077367 0.490025 -0.184141 0.0108204 
-0.398436 0.530548 -0.168949 0.00907507 
-0.309472 0.519171 -0.188559 0.0179599 
-0.228309 0.506313 -0.171408 0.0133686 
-0.0749269 0.530022 -0.192911 0.0140389 
-0.457468 0.543547 -0.171798 0.00506248 
-0.290127 0.562117 -0.186078 0.0102716 
-0.140472 0.552442 -0.202523 0.0120184 
-0.0203923 0.537661 -0.184347 0.0153603 
-0.34097 0.581871 -0.194321 0.00711629 
-0.142036 0.594424 -0.17573 0.00539028 
-0.0944384 0.593194 -0.199329 0.012702 
-0.0882497 0.601072 -0.166622 0.0136393 
-0.223746 0.637365 -0.201903 0.0146353 
-0.12075 0.63633 -0.189457 0.0157956 
-0.00822411 0.626347 -0.201676 0.00693687 
-0.0253064 0.61839 -0.185449 0.00947948 
-0.179022 0.701517 -0.179729 0.0149768 
-0.128529 0.689255 -0.188226 0.0134508 
-0.284039 0.760191 -0.197237 0.00609523 
-0.179477 0.735837 -0.186888 0.0169359 
-0.104674 0.749204 -0.1931 0.00660682 
-0.0808852 0.724029 -0.172125 0.0065853 
-0.279078 0.774035 -0.180543 0.00858151 
-0.119349 0.759276 -0.196092 0.00568062 
-0.0413011 0.765313 -0.171952 0.0157285 
-0.286302 0.793727 -0.166681 0.0157109 
-0.0641072 0.789474 -0.180749 0.0152997 
-0.482863 0.854224 -0.184999 0.0105327 
-0.436239 0.883501 -0.199302 0.0117173 
-0.01975 0.883193 -0.182458 0.012407 
-0.429572 0.927349 -0.181149 0.00633789 
-0.0414226 0.931527 -0.17252 0.0114674 
-0.396753 0.954167 -0.179045 0.0178289 
-0.159305 0.951771 -0.175434 0.0116487 
-0.104418 0.954479 -0.205919 0.0124186 
-0.107241 0.953855 -0.17583 0.0118379 
-0.347775 0.98707 -0.169966 0.0101514 
-0.276603 0.983972 -0.170183 0.0197641 
-0.19125 1.0082 -0.168069 0.00977194 
-0.372793 1.01863 -0.186934 0.0109253 
-0.318502 1.02107 -0.176751 0.0152734 
-0.216744 1.02374 -0.179724 0.0199312 
-0.195875 1.03799 -0.194863 0.00712737 
-0.13068 1.03088 -0.182051 0.0134787 
-0.0498498 1.0251 -0.189094 0.0161466 
-0.0112242 1.04017 -0.190838 0.0147285 
-0.383947 1.04996 -0.189416 0.0153436 
-0.319469 1.07805 -0.184731 0.0143655 
-0.108097 1.05964 -0.185294 0.00645212 
-0.43845 1.10677 -0.198513 0.014897 
-0.391237 1.08714 -0.197136 0.0106121 
-0.347772 1.08879 -0.173286 0.00832207 
-0.324351 1.09877 -0.171516 0.0106715 
-0.309635 1.09709 -0.204625 0.0121983 
-0.231606 1.10804 -0.187213 0.0162236 
-0.0739713 1.11452 -0.176731 0.0101538 
-0.0419312 1.11277 -0.200702 0.0113531 
-0.405012 1.12319 -0.176878 0.0143593 
-0.169178 1.14056 -0.184984 0.00784925 
-0.130718 1.14385 -0.198433 0.00682264 
-0.0584711 1.18099 -0.196363 0.0194243 
-0.0379348 1.20014 -0.175749 0.00866744 
-0.00745968 1.22898 -0.181475 0.00555498 
-0.069509 1.27643 -0.198064 0.0124198 
-0.320148 1.30644 -0.182835 0.0182025 
-0.0392719 1.33359 -0.167751 0.0115537 
-0.17514 1.40057 -0.189765 0.0113316 
-0.425502 1.43984 -0.178383 0.0116615 
-0.196217 1.43943 -0.172219 0.019204 
-0.144802 1.43236 -0.169959 0.0111572 
-0.233691 1.45618 -0.193948 0.00562268 
-0.147245 1.46329 -0.168097 0.0082974 
-0.457381 -0.0813782 -0.138948 0.00768579 
-0.255895 -0.00740679 -0.167765 0.0147122 
-0.216282 -0.0192622 -0.155472 0.0110899 
-0.395795 0.0150125 -0.145827 0.00683246 
-0.169977 0.0160784 -0.134933 0.0117169 
-0.391071 0.0892552 -0.160173 0.0135263 
-0.351525 0.10053 -0.133157 0.0194572 
-0.315491 0.106483 -0.163781 0.00830008 
-0.181591 0.113805 -0.152594 0.00698977 
-0.0617763 0.225581 -0.136811 0.00718518 
-0.229231 0.265121 -0.139735 0.017697 
-0.328942 0.287899 -0.158218 0.00528538 
-0.212383 0.293144 -0.155788 0.0118992 
-0.394071 0.32678 -0.150924 0.00930547 
-0.360899 0.343545 -0.145557 0.0142107 
-0.316884 0.32405 -0.14077 0.00803327 
-0.256462 0.349649 -0.145335 0.0106092 
-0.17405 0.392051 -0.129538 0.0131403 
-0.139425 0.397593 -0.156048 0.0194289 
-0.346865 0.393978 -0.136219 0.0146782 
-0.201217 0.398003 -0.149477 0.0169772 
-0.422694 0.43297 -0.156049 0.0124167 
-0.237771 0.445459 -0.159377 0.0149276 
-0.165975 0.436995 -0.156316 0.00794103 
-0.126039 0.437445 -0.164834 0.0177121 
-0.288634 0.46669 -0.135688 0.00692092 
-0.383103 0.499924 -0.14255 0.0153929 
-0.232274 0.563839 -0.160271 0.0135114 
-0.206029 0.558217 -0.132985 0.00993968 
-0.158315 0.544183 -0.164396 0.0107909 
-0.296989 0.592448 -0.155667 0.00599519 
-0.0526406 0.584948 -0.136529 0.0100699 
-0.068718 0.611058 -0.158545 0.00584704 
-0.324962 0.69792 -0.143761 0.0197897 
-0.139269 0.708308 -0.153753 0.0113351 
-0.0763101 0.714645 -0.134031 0.00643071 
-0.106489 0.69194 -0.139059 0.0143988 
-0.316613 0.794732 -0.146195 0.00695511 
-0.018695 0.753217 -0.146581 0.010668 
-0.1522 0.82344 -0.148399 0.016552 
-0.0431696 0.886809 -0.146199 0.0191784 
-0.300213 0.929467 -0.164405 0.00521381 
-0.277178 0.906615 -0.149318 0.0101583 
-0.173937 0.926339 -0.14946 0.00827509 
-0.322524 0.951273 -0.162997 0.00526036 
-0.281823 0.94355 -0.137352 0.0126199 
-0.224041 0.94002 -0.165085 0.00507081 
-0.226828 0.955067 -0.147518 0.0142754 
-0.12145 0.954026 -0.150921 0.0169829 
-0.0450285 0.95771 -0.146619 0.00771854 
-0.328951 0.994513 -0.161416 0.00862948 
-0.131427 1.01181 -0.15771 0.00584272 
-0.0832258 0.971011 -0.15913 0.0165566 
-0.0447784 0.977524 -0.138857 0.00744438 
-0.00339452 1.00071 -0.154346 0.0102677 
-0.389545 1.02006 -0.134339 0.0197143 
-0.376956 1.04485 -0.146679 0.00631846 
-0.461983 1.05938 -0.16207 0.0172942 
-0.294289 1.05699 -0.147277 0.0185055 
-0.158488 1.05014 -0.150926 0.00731199 
-0.0203828 1.0446 -0.140628 0.0157599 
-0.00975365 1.07727 -0.139001 0.0173913 
-0.279293 1.08183 -0.166309 0.0151365 
-0.221246 1.07872 -0.161478 0.0163603 
-0.222341 1.08627 -0.129451 0.00804377 
-0.171456 1.09981 -0.158088 0.00570914 
-0.113156 1.08321 -0.144757 0.0168611 
-0.466143 1.13977 -0.162337 0.0108066 
-0.434294 1.16626 -0.147507 0.0101516 
-0.254248 1.15971 -0.129271 0.0176039 
-0.441446 1.21676 -0.163346 0.0184146 
-0.298708 1.21114 -0.133517 0.0117006 
-0.204086 1.18382 -0.159193 0.0115358 
-0.108477 1.18683 -0.165927 0.0167838 
-0.062691 1.20395 -0.139335 0.00991807 
-0.147146 1.24967 -0.152386 0.019972 
-0.0685569 1.25109 -0.165892 0.0188618 
-0.0384284 1.23824 -0.141745 0.0101022 
-0.0366705 1.25719 -0.159239 0.00737439 
-0.424556 1.28663 -0.136772 0.0149341 
-0.36066 1.29937 -0.161061 0.0192875 
-0.242847 1.31423 -0.155695 0.00769819 
-0.312802 1.34349 -0.13324 0.0186338 
-0.226141 1.34944 -0.134859 0.0187595 
-0.439308 1.40705 -0.16393 0.0149682 
-0.348347 1.43015 -0.143742 0.0160504 
-0.106022 1.44501 -0.166415 0.0171387 
-0.0837455 1.41919 -0.140653 0.0141675 
-0.171417 1.46423 -0.159203 0.0138987 
-0.0631862 1.13318 0.481869 0.00866419 
-0.00648477 0.319591 0.109338 0.0109532 
-0.175218 -0.0673088 -0.11445 0.00626854 
-0.414743 0.0415188 -0.130992 0.0129789 
-0.322263 0.0287128 -0.109058 0.0188281 
-0.28787 0.0559293 -0.117448 0.0053782 
-0.182469 0.0584421 -0.12443 0.00593365 
-0.450449 0.0736447 -0.105025 0.0183586 
-0.196055 0.0956999 -0.115982 0.0199477 
-0.24591 0.125704 -0.101209 0.0199093 
-0.0582154 0.181103 -0.0832301 0.00860724 
-0.0228162 0.169968 -0.114316 0.014926 
-0.0804437 0.21499 -0.0856577 0.0134929 
-0.340995 0.218613 -0.123482 0.016209 
-0.119867 0.261996 -0.0827005 0.0133606 
-0.0845222 0.229497 -0.12483 0.00825485 
-0.472672 0.266387 -0.118375 0.012498 
-0.4347 0.293665 -0.0989252 0.010667 
-0.421697 0.302766 -0.12709 0.0122639 
-0.380986 0.314133 -0.119275 0.0174832 
-0.263864 0.310417 -0.127095 0.0185974 
-0.208134 0.373476 -0.102867 0.0157223 
-0.184765 0.382332 -0.100706 0.00563833 
-0.461469 0.403775 -0.0994237 0.0172965 
-0.261636 0.411157 -0.108357 0.0157212 
-0.0381619 0.402352 -0.117248 0.0138358 
-0.0934321 0.480108 -0.114737 0.0135697 
-0.497633 0.510908 -0.121621 0.0135824 
-0.281104 0.520629 -0.0961712 0.0137534 
-0.0203355 0.501339 -0.109443 0.0132968 
-0.308362 0.558411 -0.1018 0.00811171 
-0.286191 0.564911 -0.121784 0.0156729 
-0.0653556 0.556968 -0.115601 0.0179944 
-0.243526 0.583513 -0.121452 0.0158987 
-0.000589706 0.626265 -0.0980343 0.0138338 
-0.412192 0.707967 -0.111087 0.0163707 
-0.0343835 0.697882 -0.131065 0.0110938 
-0.265649 0.71954 -0.0995408 0.0129346 
-0.154987 0.735147 -0.129826 0.0100183 
-0.333423 0.769802 -0.129887 0.00909295 
-0.331351 0.762185 -0.0971657 0.0136646 
-0.293105 0.783975 -0.133172 0.0152411 
-0.203453 0.777324 -0.0993627 0.0199002 
-0.0858361 0.790974 -0.101792 0.0138883 
-0.319794 0.810979 -0.118775 0.01745 
-0.224586 0.85887 -0.125856 0.0145279 
-0.0410517 0.826683 -0.099706 0.00712824 
-0.0265608 0.85069 -0.109916 0.0079713 
-0.169806 0.876295 -0.130275 0.0171965 
-0.0375229 0.896842 -0.0928419 0.00783728 
-0.457329 0.926462 -0.0990671 0.00832394 
-0.433582 0.905938 -0.128743 0.0189362 
-0.230477 0.909521 -0.116541 0.0121328 
-0.119575 0.920111 -0.109481 0.0159218 
-0.349054 0.96101 -0.122399 0.0172599 
-0.412464 0.975786 -0.124263 0.0131191 
-0.293553 1.01381 -0.097075 0.00601504 
-0.356703 1.04713 -0.125002 0.0154353 
-0.16728 1.02711 -0.116174 0.0176173 
-0.270413 1.05021 -0.0970013 0.014212 
-0.101319 1.07327 -0.102364 0.014996 
-0.281324 1.08405 -0.119775 0.0163094 
-0.308116 1.07916 -0.107008 0.00670926 
-0.193826 1.09294 -0.0995219 0.0126099 
-0.0311079 1.09538 -0.103074 0.018851 
-0.215822 1.14298 -0.117011 0.0167837 
-0.239666 1.13215 -0.134055 0.00819276 
-0.0455843 1.12251 -0.10187 0.007735 
-0.366801 1.18062 -0.107498 0.0123994 
-0.186861 1.18899 -0.108851 0.019938 
-0.379732 1.26402 -0.127664 0.0158532 
-0.251019 1.23079 -0.106985 0.0191058 
-0.2387 1.26617 -0.101837 0.00882574 
-0.0421754 1.26225 -0.123999 0.00778899 
-0.00678114 1.27641 -0.101148 0.00681478 
-0.160067 1.2966 -0.113808 0.0125402 
-0.0868598 1.30034 -0.133831 0.0124954 
-0.410321 1.33115 -0.118987 0.00603493 
-0.394884 1.34987 -0.125313 0.0133992 
-0.0190085 1.37498 -0.111952 0.0161133 
-0.32428 1.37035 -0.101499 0.0130301 
-0.327211 1.39412 -0.126754 0.0191742 
-0.198663 1.42713 -0.106039 0.013736 
-0.119515 1.42096 -0.119651 0.0055113 
-0.0793361 1.4113 -0.11426 0.0134882 
-0.277512 1.46314 -0.119423 0.010955 
-0.000771201 0.727821 -0.116183 0.0138596 
-0.339306 -0.0626743 -0.0842334 0.0127031 
-0.290145 -0.0145845 -0.08753 0.0175139 
-0.352107 0.0154715 -0.0782567 0.00749152 
-0.0269406 0.0748624 -0.0593382 0.014975 
-0.416659 0.0551355 -0.0650791 0.0153129 
-0.354788 0.0505601 -0.0649252 0.0164265 
-0.0381872 0.088388 -0.0748388 0.00789425 
-0.0638439 0.108349 -0.0587302 0.0102351 
-0.0483169 0.103526 -0.0712461 0.00980084 
-0.0128569 0.0999405 -0.0750509 0.0176356 
-0.29059 0.101719 -0.0567655 0.0180192 
-0.0453189 0.127834 -0.0704312 0.00938735 
-0.0184988 0.129588 -0.0916199 0.0169197 
-0.00799893 0.139934 -0.0612573 0.0169976 
-0.0173493 0.154682 -0.0832678 0.00519143 
-0.0734954 0.155532 -0.0773151 0.0172492 
-0.0375311 0.151789 -0.0658279 0.0135287 
-0.317986 0.173719 -0.0756317 0.0154785 
-0.211094 0.181023 -0.0819274 0.019345 
-0.296318 0.231144 -0.0663837 0.00912106 
-0.136015 0.241867 -0.0715459 0.00630556 
-0.104925 0.236389 -0.0665778 0.00512843 
-0.0251018 0.236063 -0.0665078 0.0130381 
-0.435823 0.272234 -0.0728868 0.0195311 
-0.292702 0.279498 -0.0869953 0.0173394 
-0.14088 0.308487 -0.0758035 0.0127797 