ITEM: TIMESTEP
100000
ITEM: NUMBER OF ATOMS
100
ITEM: BOX BOUNDS pp pp ff
-0.00025 0.00025
-0.00025 0.00025
0 0.002
ITEM: ATOMS id type x y z radius vx vy vz fx fy fz 
37 1 -0.000114871 -0.000139748 4.53791e-05 2.5e-05 0 0 -0.00196199 0 0 -6.40242e-10 
44 1 -0.000134888 -6.81107e-05 5.45935e-05 2.5e-05 0 0 -0.00196199 0 0 -6.40242e-10 
24 1 -0.000144195 1.55447e-05 3.56929e-05 2.5e-05 0 0 -0.00196199 0 0 -6.40242e-10 
53 1 0.000223794 -0.000200703 0.000136271 2.5e-05 0 0 -0.00196199 0 0 -6.40242e-10 
65 1 -6.89311e-05 -2.50621e-05 0.000124058 2.5e-05 0 0 -0.00196199 0 0 -6.40242e-10 
99 1 0.000221103 7.31704e-05 0.000100091 2.5e-05 0 0 -0.00196199 0 0 -6.40242e-10 
38 1 -2.86126e-05 0.000107858 0.000106434 2.5e-05 0 0 -0.00196199 0 0 -6.40242e-10 
39 1 -0.000216774 0.000181161 0.000110617 2.5e-05 0 0 -0.00196199 0 0 -6.40242e-10 
92 1 0.000175182 -0.00020927 0.000190141 2.5e-05 0 0 -0.00196199 0 0 -6.40242e-10 
85 1 6.93131e-05 -5.41258e-05 0.000227254 2.5e-05 0 0 -0.00196199 0 0 -6.40242e-10 
26 1 -0.000166597 1.08765e-05 0.000202481 2.5e-05 0 0 -0.00196199 0 0 -6.40242e-10 
54 1 0.000149468 0.000111341 0.000224507 2.5e-05 0 0 -0.00196199 0 0 -6.40242e-10 
66 1 -0.000165812 0.000191218 0.000201621 2.5e-05 0 0 -0.00196199 0 0 -6.40242e-10 
63 1 2.69139e-05 -0.000158367 0.000276251 2.5e-05 0 0 -0.00196199 0 0 -6.40242e-10 
67 1 2.10962e-05 6.43674e-05 0.000294152 2.5e-05 0 0 -0.00196199 0 0 -6.40242e-10 
90 1 -2.20659e-05 0.000139038 0.000260366 2.5e-05 0 0 -0.00196199 0 0 -6.40242e-10 
2 1 0.000161932 9.49497e-05 0.000279385 2.5e-05 0 0 -0.00196199 0 0 -6.40242e-10 
47 1 0.000106395 0.000185329 0.000282396 2.5e-05 0 0 -0.00196199 0 0 -6.40242e-10 
98 1 -0.00019362 -0.00017449 0.000369048 2.5e-05 0 0 -0.00196199 0 0 -6.40242e-10 
28 1 0.000169156 8.46832e-06 0.000308194 2.5e-05 0 0 -0.00196199 0 0 -6.40242e-10 
79 1 0.000169606 6.98719e-05 0.000350421 2.5e-05 0 0 -0.00196199 0 0 -6.40242e-10 
7 1 8.42141e-05 -0.000114039 0.000398555 2.5e-05 0 0 -0.00196199 0 0 -6.40242e-10 
45 1 -3.727e-05 0.000103609 0.000433484 2.5e-05 0 0 -0.00196199 0 0 -6.40242e-10 
58 1 -9.53864e-05 -0.000158572 0.000513957 2.5e-05 0 0 -0.00196199 0 0 -6.40242e-10 
11 1 -3.80866e-05 -0.000121624 0.000475724 2.5e-05 0 0 -0.00196199 0 0 -6.40242e-10 
59 1 3.48635e-05 -4.96593e-05 0.00050172 2.5e-05 0 0 -0.00196199 0 0 -6.40242e-10 
31 1 0.000168472 1.3915e-05 0.000478091 2.5e-05 0 0 -0.00196199 0 0 -6.40242e-10 
10 1 0.000147009 -0.000213399 0.00059175 2.5e-05 0 0 -0.00196199 0 0 -6.40242e-10 
27 1 -0.000152931 0.00018932 0.000593109 2.5e-05 0 0 -0.00196199 0 0 -6.40242e-10 
34 1 -8.41151e-05 -0.000222056 0.000651467 2.5e-05 0 0 -0.00196199 0 0 -6.40242e-10 
46 1 -3.29704e-05 -0.000133849 0.000621534 2.5e-05 0 0 -0.00196199 0 0 -6.40242e-10 
68 1 2.96272e-05 -5.55773e-05 0.000652027 2.5e-05 0 0 -0.00196199 0 0 -6.40242e-10 
19 1 6.69393e-05 4.8605e-05 0.000618594 2.5e-05 0 0 -0.00196199 0 0 -6.40242e-10 
62 1 -0.00011268 0.000194824 0.000660428 2.5e-05 0 0 -0.00196199 0 0 -6.40242e-10 
86 1 -6.08189e-05 -0.000183112 0.000747295 2.5e-05 0 0 -0.00196199 0 0 -6.40242e-10 
42 1 -0.00019311 -0.000103176 0.000692927 2.5e-05 0 0 -0.00196199 0 0 -6.40242e-10 
3 1 -2.0951e-05 -0.000123554 0.000728484 2.5e-05 0 0 -0.00196199 0 0 -6.40242e-10 
43 1 8.02856e-05 -0.000140749 0.000716643 2.5e-05 0 0 -0.00196199 0 0 -6.40242e-10 
77 1 -6.58964e-05 -2.14237e-05 0.00072873 2.5e-05 0 0 -0.00196199 0 0 -6.40242e-10 
50 1 -0.000204021 1.1985e-05 0.000724934 2.5e-05 0 0 -0.00196199 0 0 -6.40242e-10 
23 1 0.000160418 0.000142912 0.000692993 2.5e-05 0 0 -0.00196199 0 0 -6.40242e-10 
6 1 -0.000162033 0.000204345 0.000707089 2.5e-05 0 0 -0.00196199 0 0 -6.40242e-10 
56 1 0.000208944 0.000215293 0.000745718 2.5e-05 0 0 -0.00196199 0 0 -6.40242e-10 
94 1 0.000110024 0.00017415 0.000784339 2.5e-05 0 0 -0.00196199 0 0 -6.40242e-10 
4 1 -1.99916e-05 1.54529e-06 0.000886442 2.5e-05 0 0 -0.00196199 0 0 -6.40242e-10 
71 1 0.000186624 9.72192e-05 0.000849131 2.5e-05 0 0 -0.00196199 0 0 -6.40242e-10 
35 1 -0.000122974 0.000173022 0.000904277 2.5e-05 0 0 -0.00196199 0 0 -6.40242e-10 
81 1 -5.48059e-05 -0.000122509 0.000976299 2.5e-05 0 0 -0.00196199 0 0 -6.40242e-10 
17 1 -9.01141e-05 -4.80163e-05 0.000960169 2.5e-05 0 0 -0.00196199 0 0 -6.40242e-10 
30 1 -0.000221303 6.8245e-05 0.000972355 2.5e-05 0 0 -0.00196199 0 0 -6.40242e-10 
25 1 4.71407e-05 -0.000206788 0.00104677 2.5e-05 0 0 -0.00196199 0 0 -6.40242e-10 
74 1 -0.00010722 -5.3072e-05 0.00107311 2.5e-05 0 0 -0.00196199 0 0 -6.40242e-10 
80 1 -4.54543e-05 4.89083e-05 0.0010061 2.5e-05 0 0 -0.00196199 0 0 -6.40242e-10 
100 1 0.000119804 5.28358e-05 0.00104286 2.5e-05 0 0 -0.00196199 0 0 -6.40242e-10 
76 1 -8.12627e-05 0.000218005 0.00107052 2.5e-05 0 0 -0.00196199 0 0 -6.40242e-10 
32 1 -0.000108148 -0.000138304 0.00108474 2.5e-05 0 0 -0.00196199 0 0 -6.40242e-10 
41 1 -4.59114e-05 -0.000133217 0.00108234 2.5e-05 0 0 -0.00196199 0 0 -6.40242e-10 
93 1 -5.10273e-07 -7.6157e-05 0.0011199 2.5e-05 0 0 -0.00196199 0 0 -6.40242e-10 
16 1 1.49332e-05 -1.80562e-05 0.00111462 2.5e-05 0 0 -0.00196199 0 0 -6.40242e-10 
96 1 0.000111093 0.000138575 0.00114465 2.5e-05 0 0 -0.00196199 0 0 -6.40242e-10 
48 1 0.000131028 0.000194385 0.00111397 2.5e-05 0 0 -0.00196199 0 0 -6.40242e-10 
22 1 -0.000150808 -0.000132947 0.00122784 2.5e-05 0 0 -0.00196199 0 0 -6.40242e-10 
72 1 -8.74122e-05 -0.00013741 0.00116824 2.5e-05 0 0 -0.00196199 0 0 -6.40242e-10 
57 1 -0.000104471 0.000151934 0.00120163 2.5e-05 0 0 -0.00196199 0 0 -6.40242e-10 
49 1 -4.81889e-05 8.94001e-05 0.00118694 2.5e-05 0 0 -0.00196199 0 0 -6.40242e-10 
69 1 0.00017177 -6.35415e-05 0.00123115 2.5e-05 0 0 -0.00196199 0 0 -6.40242e-10 
83 1 0.000169902 4.0493e-05 0.00126123 2.5e-05 0 0 -0.00196199 0 0 -6.40242e-10 
20 1 -0.000212347 8.53855e-05 0.00129849 2.5e-05 0 0 -0.00196199 0 0 -6.40242e-10 
29 1 9.02419e-05 0.000195071 0.00124203 2.5e-05 0 0 -0.00196199 0 0 -6.40242e-10 
21 1 1.64039e-05 0.000200874 0.00133332 2.5e-05 0 0 -0.00196199 0 0 -6.40242e-10 
13 1 -0.000184278 -0.000159659 0.00142966 2.5e-05 0 0 -0.00196199 0 0 -6.40242e-10 
51 1 6.52104e-05 -8.23481e-06 0.00138978 2.5e-05 0 0 -0.00196199 0 0 -6.40242e-10 
84 1 3.82337e-05 9.4193e-05 0.00140521 2.5e-05 0 0 -0.00196199 0 0 -6.40242e-10 
14 1 0.000153483 8.84809e-05 0.00139492 2.5e-05 0 0 -0.00196199 0 0 -6.40242e-10 
5 1 0.00018362 9.41044e-05 0.0014522 2.5e-05 0 0 -0.00196199 0 0 -6.40242e-10 
75 1 3.06385e-05 -5.87185e-05 0.00147149 2.5e-05 0 0 -0.00196199 0 0 -6.40242e-10 
95 1 0.000130419 -4.57774e-05 0.00147523 2.5e-05 0 0 -0.00196199 0 0 -6.40242e-10 
60 1 0.000176292 -5.59212e-05 0.0015318 2.5e-05 0 0 -0.00196199 0 0 -6.40242e-10 
61 1 -0.000164604 1.64406e-06 0.00152682 2.5e-05 0 0 -0.00196199 0 0 -6.40242e-10 
1 1 0.000131027 0.00016848 0.00155366 2.5e-05 0 0 -0.00196199 0 0 -6.40242e-10 
78 1 -0.000109245 -7.35009e-05 0.0016803 2.5e-05 0 0 -0.00196199 0 0 -6.40242e-10 
88 1 -0.000155025 -2.34087e-06 0.00162801 2.5e-05 0 0 -0.00196199 0 0 -6.40242e-10 
9 1 0.000150558 -6.65104e-05 0.00163862 2.5e-05 0 0 -0.00196199 0 0 -6.40242e-10 
8 1 0.000203486 -8.34947e-06 0.0016817 2.5e-05 0 0 -0.00196199 0 0 -6.40242e-10 
97 1 9.32987e-05 7.14678e-05 0.00163687 2.5e-05 0 0 -0.00196199 0 0 -6.40242e-10 
33 1 0.000101959 0.00013058 0.0016294 2.5e-05 0 0 -0.00196199 0 0 -6.40242e-10 
70 1 5.94509e-05 0.000192014 0.00168664 2.5e-05 0 0 -0.00196199 0 0 -6.40242e-10 
91 1 6.5139e-05 -0.000207998 0.00173347 2.5e-05 0 0 -0.00196199 0 0 -6.40242e-10 
36 1 0.000119853 -0.000130471 0.00170486 2.5e-05 0 0 -0.00196199 0 0 -6.40242e-10 
40 1 -0.000141578 2.42042e-06 0.00171992 2.5e-05 0 0 -0.00196199 0 0 -6.40242e-10 
52 1 8.20616e-05 0.000209328 0.00173245 2.5e-05 0 0 -0.00196199 0 0 -6.40242e-10 
12 1 -5.39917e-05 6.207e-05 0.0018419 2.5e-05 0 0 -0.00196199 0 0 -6.40242e-10 
55 1 -0.00010507 9.44075e-05 0.00182618 2.5e-05 0 0 -0.00196199 0 0 -6.40242e-10 
87 1 2.21117e-05 0.000131386 0.00179563 2.5e-05 0 0 -0.00196199 0 0 -6.40242e-10 
64 1 -0.000186935 0.000182733 0.00180243 2.5e-05 0 0 -0.00196199 0 0 -6.40242e-10 
82 1 -0.000138675 -0.000206092 0.00185979 2.5e-05 0 0 -0.00196199 0 0 -6.40242e-10 
89 1 9.90526e-05 -0.000222513 0.00189074 2.5e-05 0 0 -0.00196199 0 0 -6.40242e-10 
73 1 0.000190455 -2.83384e-05 0.00186739 2.5e-05 0 0 -0.00196199 0 0 -6.40242e-10 
15 1 0.000182461 0.000125021 0.00190205 2.5e-05 0 0 -0.00196199 0 0 -6.40242e-10 
18 1 -3.70278e-05 0.000174346 0.00195862 2.5e-05 0 0 -0.00196199 0 0 -6.40242e-10 
