ITEM: TIMESTEP
0
ITEM: NUMBER OF ATOMS
1000
ITEM: BOX BOUNDS
0.0 19.0
0.0 16.1658075373
0.0 14.6969384567
ITEM: ATOMS id x y z radius 
0 0.0 0.0 0.0 1.0 
1 1.0 0.57735026919 1.63299316186 1.0 
2 0.0 0.0 3.26598632371 1.0 
3 1.0 0.57735026919 4.89897948557 1.0 
4 0.0 0.0 6.53197264742 1.0 
5 1.0 0.57735026919 8.16496580928 1.0 
6 0.0 0.0 9.79795897113 1.0 
7 1.0 0.57735026919 11.430952133 1.0 
8 0.0 0.0 13.0639452948 1.0 
9 1.0 0.57735026919 14.6969384567 1.0 
10 1.0 1.73205080757 0.0 1.0 
11 0.0 2.30940107676 1.63299316186 1.0 
12 1.0 1.73205080757 3.26598632371 1.0 
13 0.0 2.30940107676 4.89897948557 1.0 
14 1.0 1.73205080757 6.53197264742 1.0 
15 0.0 2.30940107676 8.16496580928 1.0 
16 1.0 1.73205080757 9.79795897113 1.0 
17 0.0 2.30940107676 11.430952133 1.0 
18 1.0 1.73205080757 13.0639452948 1.0 
19 0.0 2.30940107676 14.6969384567 1.0 
20 0.0 3.46410161514 0.0 1.0 
21 1.0 4.04145188433 1.63299316186 1.0 
22 0.0 3.46410161514 3.26598632371 1.0 
23 1.0 4.04145188433 4.89897948557 1.0 
24 0.0 3.46410161514 6.53197264742 1.0 
25 1.0 4.04145188433 8.16496580928 1.0 
26 0.0 3.46410161514 9.79795897113 1.0 
27 1.0 4.04145188433 11.430952133 1.0 
28 0.0 3.46410161514 13.0639452948 1.0 
29 1.0 4.04145188433 14.6969384567 1.0 
30 1.0 5.19615242271 0.0 1.0 
31 0.0 5.7735026919 1.63299316186 1.0 
32 1.0 5.19615242271 3.26598632371 1.0 
33 0.0 5.7735026919 4.89897948557 1.0 
34 1.0 5.19615242271 6.53197264742 1.0 
35 0.0 5.7735026919 8.16496580928 1.0 
36 1.0 5.19615242271 9.79795897113 1.0 
37 0.0 5.7735026919 11.430952133 1.0 
38 1.0 5.19615242271 13.0639452948 1.0 
39 0.0 5.7735026919 14.6969384567 1.0 
40 0.0 6.92820323028 0.0 1.0 
41 1.0 7.50555349947 1.63299316186 1.0 
42 0.0 6.92820323028 3.26598632371 1.0 
43 1.0 7.50555349947 4.89897948557 1.0 
44 0.0 6.92820323028 6.53197264742 1.0 
45 1.0 7.50555349947 8.16496580928 1.0 
46 0.0 6.92820323028 9.79795897113 1.0 
47 1.0 7.50555349947 11.430952133 1.0 
48 0.0 6.92820323028 13.0639452948 1.0 
49 1.0 7.50555349947 14.6969384567 1.0 
50 1.0 8.66025403784 0.0 1.0 
51 0.0 9.23760430703 1.63299316186 1.0 
52 1.0 8.66025403784 3.26598632371 1.0 
53 0.0 9.23760430703 4.89897948557 1.0 
54 1.0 8.66025403784 6.53197264742 1.0 
55 0.0 9.23760430703 8.16496580928 1.0 
56 1.0 8.66025403784 9.79795897113 1.0 
57 0.0 9.23760430703 11.430952133 1.0 
58 1.0 8.66025403784 13.0639452948 1.0 
59 0.0 9.23760430703 14.6969384567 1.0 
60 0.0 10.3923048454 0.0 1.0 
61 1.0 10.9696551146 1.63299316186 1.0 
62 0.0 10.3923048454 3.26598632371 1.0 
63 1.0 10.9696551146 4.89897948557 1.0 
64 0.0 10.3923048454 6.53197264742 1.0 
65 1.0 10.9696551146 8.16496580928 1.0 
66 0.0 10.3923048454 9.79795897113 1.0 
67 1.0 10.9696551146 11.430952133 1.0 
68 0.0 10.3923048454 13.0639452948 1.0 
69 1.0 10.9696551146 14.6969384567 1.0 
70 1.0 12.124355653 0.0 1.0 
71 0.0 12.7017059222 1.63299316186 1.0 
72 1.0 12.124355653 3.26598632371 1.0 
73 0.0 12.7017059222 4.89897948557 1.0 
74 1.0 12.124355653 6.53197264742 1.0 
75 0.0 12.7017059222 8.16496580928 1.0 
76 1.0 12.124355653 9.79795897113 1.0 
77 0.0 12.7017059222 11.430952133 1.0 
78 1.0 12.124355653 13.0639452948 1.0 
79 0.0 12.7017059222 14.6969384567 1.0 
80 0.0 13.8564064606 0.0 1.0 
81 1.0 14.4337567297 1.63299316186 1.0 
82 0.0 13.8564064606 3.26598632371 1.0 
83 1.0 14.4337567297 4.89897948557 1.0 
84 0.0 13.8564064606 6.53197264742 1.0 
85 1.0 14.4337567297 8.16496580928 1.0 
86 0.0 13.8564064606 9.79795897113 1.0 
87 1.0 14.4337567297 11.430952133 1.0 
88 0.0 13.8564064606 13.0639452948 1.0 
89 1.0 14.4337567297 14.6969384567 1.0 
90 1.0 15.5884572681 0.0 1.0 
91 0.0 16.1658075373 1.63299316186 1.0 
92 1.0 15.5884572681 3.26598632371 1.0 
93 0.0 16.1658075373 4.89897948557 1.0 
94 1.0 15.5884572681 6.53197264742 1.0 
95 0.0 16.1658075373 8.16496580928 1.0 
96 1.0 15.5884572681 9.79795897113 1.0 
97 0.0 16.1658075373 11.430952133 1.0 
98 1.0 15.5884572681 13.0639452948 1.0 
99 0.0 16.1658075373 14.6969384567 1.0 
100 2.0 0.0 0.0 1.0 
101 3.0 0.57735026919 1.63299316186 1.0 
102 2.0 0.0 3.26598632371 1.0 
103 3.0 0.57735026919 4.89897948557 1.0 
104 2.0 0.0 6.53197264742 1.0 
105 3.0 0.57735026919 8.16496580928 1.0 
106 2.0 0.0 9.79795897113 1.0 
107 3.0 0.57735026919 11.430952133 1.0 
108 2.0 0.0 13.0639452948 1.0 
109 3.0 0.57735026919 14.6969384567 1.0 
110 3.0 1.73205080757 0.0 1.0 
111 2.0 2.30940107676 1.63299316186 1.0 
112 3.0 1.73205080757 3.26598632371 1.0 
113 2.0 2.30940107676 4.89897948557 1.0 
114 3.0 1.73205080757 6.53197264742 1.0 
115 2.0 2.30940107676 8.16496580928 1.0 
116 3.0 1.73205080757 9.79795897113 1.0 
117 2.0 2.30940107676 11.430952133 1.0 
118 3.0 1.73205080757 13.0639452948 1.0 
119 2.0 2.30940107676 14.6969384567 1.0 
120 2.0 3.46410161514 0.0 1.0 
121 3.0 4.04145188433 1.63299316186 1.0 
122 2.0 3.46410161514 3.26598632371 1.0 
123 3.0 4.04145188433 4.89897948557 1.0 
124 2.0 3.46410161514 6.53197264742 1.0 
125 3.0 4.04145188433 8.16496580928 1.0 
126 2.0 3.46410161514 9.79795897113 1.0 
127 3.0 4.04145188433 11.430952133 1.0 
128 2.0 3.46410161514 13.0639452948 1.0 
129 3.0 4.04145188433 14.6969384567 1.0 
130 3.0 5.19615242271 0.0 1.0 
131 2.0 5.7735026919 1.63299316186 1.0 
132 3.0 5.19615242271 3.26598632371 1.0 
133 2.0 5.7735026919 4.89897948557 1.0 
134 3.0 5.19615242271 6.53197264742 1.0 
135 2.0 5.7735026919 8.16496580928 1.0 
136 3.0 5.19615242271 9.79795897113 1.0 
137 2.0 5.7735026919 11.430952133 1.0 
138 3.0 5.19615242271 13.0639452948 1.0 
139 2.0 5.7735026919 14.6969384567 1.0 
140 2.0 6.92820323028 0.0 1.0 
141 3.0 7.50555349947 1.63299316186 1.0 
142 2.0 6.92820323028 3.26598632371 1.0 
143 3.0 7.50555349947 4.89897948557 1.0 
144 2.0 6.92820323028 6.53197264742 1.0 
145 3.0 7.50555349947 8.16496580928 1.0 
146 2.0 6.92820323028 9.79795897113 1.0 
147 3.0 7.50555349947 11.430952133 1.0 
148 2.0 6.92820323028 13.0639452948 1.0 
149 3.0 7.50555349947 14.6969384567 1.0 
150 3.0 8.66025403784 0.0 1.0 
151 2.0 9.23760430703 1.63299316186 1.0 
152 3.0 8.66025403784 3.26598632371 1.0 
153 2.0 9.23760430703 4.89897948557 1.0 
154 3.0 8.66025403784 6.53197264742 1.0 
155 2.0 9.23760430703 8.16496580928 1.0 
156 3.0 8.66025403784 9.79795897113 1.0 
157 2.0 9.23760430703 11.430952133 1.0 
158 3.0 8.66025403784 13.0639452948 1.0 
159 2.0 9.23760430703 14.6969384567 1.0 
160 2.0 10.3923048454 0.0 1.0 
161 3.0 10.9696551146 1.63299316186 1.0 
162 2.0 10.3923048454 3.26598632371 1.0 
163 3.0 10.9696551146 4.89897948557 1.0 
164 2.0 10.3923048454 6.53197264742 1.0 
165 3.0 10.9696551146 8.16496580928 1.0 
166 2.0 10.3923048454 9.79795897113 1.0 
167 3.0 10.9696551146 11.430952133 1.0 
168 2.0 10.3923048454 13.0639452948 1.0 
169 3.0 10.9696551146 14.6969384567 1.0 
170 3.0 12.124355653 0.0 1.0 
171 2.0 12.7017059222 1.63299316186 1.0 
172 3.0 12.124355653 3.26598632371 1.0 
173 2.0 12.7017059222 4.89897948557 1.0 
174 3.0 12.124355653 6.53197264742 1.0 
175 2.0 12.7017059222 8.16496580928 1.0 
176 3.0 12.124355653 9.79795897113 1.0 
177 2.0 12.7017059222 11.430952133 1.0 
178 3.0 12.124355653 13.0639452948 1.0 
179 2.0 12.7017059222 14.6969384567 1.0 
180 2.0 13.8564064606 0.0 1.0 
181 3.0 14.4337567297 1.63299316186 1.0 
182 2.0 13.8564064606 3.26598632371 1.0 
183 3.0 14.4337567297 4.89897948557 1.0 
184 2.0 13.8564064606 6.53197264742 1.0 
185 3.0 14.4337567297 8.16496580928 1.0 
186 2.0 13.8564064606 9.79795897113 1.0 
187 3.0 14.4337567297 11.430952133 1.0 
188 2.0 13.8564064606 13.0639452948 1.0 
189 3.0 14.4337567297 14.6969384567 1.0 
190 3.0 15.5884572681 0.0 1.0 
191 2.0 16.1658075373 1.63299316186 1.0 
192 3.0 15.5884572681 3.26598632371 1.0 
193 2.0 16.1658075373 4.89897948557 1.0 
194 3.0 15.5884572681 6.53197264742 1.0 
195 2.0 16.1658075373 8.16496580928 1.0 
196 3.0 15.5884572681 9.79795897113 1.0 
197 2.0 16.1658075373 11.430952133 1.0 
198 3.0 15.5884572681 13.0639452948 1.0 
199 2.0 16.1658075373 14.6969384567 1.0 
200 4.0 0.0 0.0 1.0 
201 5.0 0.57735026919 1.63299316186 1.0 
202 4.0 0.0 3.26598632371 1.0 
203 5.0 0.57735026919 4.89897948557 1.0 
204 4.0 0.0 6.53197264742 1.0 
205 5.0 0.57735026919 8.16496580928 1.0 
206 4.0 0.0 9.79795897113 1.0 
207 5.0 0.57735026919 11.430952133 1.0 
208 4.0 0.0 13.0639452948 1.0 
209 5.0 0.57735026919 14.6969384567 1.0 
210 5.0 1.73205080757 0.0 1.0 
211 4.0 2.30940107676 1.63299316186 1.0 
212 5.0 1.73205080757 3.26598632371 1.0 
213 4.0 2.30940107676 4.89897948557 1.0 
214 5.0 1.73205080757 6.53197264742 1.0 
215 4.0 2.30940107676 8.16496580928 1.0 
216 5.0 1.73205080757 9.79795897113 1.0 
217 4.0 2.30940107676 11.430952133 1.0 
218 5.0 1.73205080757 13.0639452948 1.0 
219 4.0 2.30940107676 14.6969384567 1.0 
220 4.0 3.46410161514 0.0 1.0 
221 5.0 4.04145188433 1.63299316186 1.0 
222 4.0 3.46410161514 3.26598632371 1.0 
223 5.0 4.04145188433 4.89897948557 1.0 
224 4.0 3.46410161514 6.53197264742 1.0 
225 5.0 4.04145188433 8.16496580928 1.0 
226 4.0 3.46410161514 9.79795897113 1.0 
227 5.0 4.04145188433 11.430952133 1.0 
228 4.0 3.46410161514 13.0639452948 1.0 
229 5.0 4.04145188433 14.6969384567 1.0 
230 5.0 5.19615242271 0.0 1.0 
231 4.0 5.7735026919 1.63299316186 1.0 
232 5.0 5.19615242271 3.26598632371 1.0 
233 4.0 5.7735026919 4.89897948557 1.0 
234 5.0 5.19615242271 6.53197264742 1.0 
235 4.0 5.7735026919 8.16496580928 1.0 
236 5.0 5.19615242271 9.79795897113 1.0 
237 4.0 5.7735026919 11.430952133 1.0 
238 5.0 5.19615242271 13.0639452948 1.0 
239 4.0 5.7735026919 14.6969384567 1.0 
240 4.0 6.92820323028 0.0 1.0 
241 5.0 7.50555349947 1.63299316186 1.0 
242 4.0 6.92820323028 3.26598632371 1.0 
243 5.0 7.50555349947 4.89897948557 1.0 
244 4.0 6.92820323028 6.53197264742 1.0 
245 5.0 7.50555349947 8.16496580928 1.0 
246 4.0 6.92820323028 9.79795897113 1.0 
247 5.0 7.50555349947 11.430952133 1.0 
248 4.0 6.92820323028 13.0639452948 1.0 
249 5.0 7.50555349947 14.6969384567 1.0 
250 5.0 8.66025403784 0.0 1.0 
251 4.0 9.23760430703 1.63299316186 1.0 
252 5.0 8.66025403784 3.26598632371 1.0 
253 4.0 9.23760430703 4.89897948557 1.0 
254 5.0 8.66025403784 6.53197264742 1.0 
255 4.0 9.23760430703 8.16496580928 1.0 
256 5.0 8.66025403784 9.79795897113 1.0 
257 4.0 9.23760430703 11.430952133 1.0 
258 5.0 8.66025403784 13.0639452948 1.0 
259 4.0 9.23760430703 14.6969384567 1.0 
260 4.0 10.3923048454 0.0 1.0 
261 5.0 10.9696551146 1.63299316186 1.0 
262 4.0 10.3923048454 3.26598632371 1.0 
263 5.0 10.9696551146 4.89897948557 1.0 
264 4.0 10.3923048454 6.53197264742 1.0 
265 5.0 10.9696551146 8.16496580928 1.0 
266 4.0 10.3923048454 9.79795897113 1.0 
267 5.0 10.9696551146 11.430952133 1.0 
268 4.0 10.3923048454 13.0639452948 1.0 
269 5.0 10.9696551146 14.6969384567 1.0 
270 5.0 12.124355653 0.0 1.0 
271 4.0 12.7017059222 1.63299316186 1.0 
272 5.0 12.124355653 3.26598632371 1.0 
273 4.0 12.7017059222 4.89897948557 1.0 
274 5.0 12.124355653 6.53197264742 1.0 
275 4.0 12.7017059222 8.16496580928 1.0 
276 5.0 12.124355653 9.79795897113 1.0 
277 4.0 12.7017059222 11.430952133 1.0 
278 5.0 12.124355653 13.0639452948 1.0 
279 4.0 12.7017059222 14.6969384567 1.0 
280 4.0 13.8564064606 0.0 1.0 
281 5.0 14.4337567297 1.63299316186 1.0 
282 4.0 13.8564064606 3.26598632371 1.0 
283 5.0 14.4337567297 4.89897948557 1.0 
284 4.0 13.8564064606 6.53197264742 1.0 
285 5.0 14.4337567297 8.16496580928 1.0 
286 4.0 13.8564064606 9.79795897113 1.0 
287 5.0 14.4337567297 11.430952133 1.0 
288 4.0 13.8564064606 13.0639452948 1.0 
289 5.0 14.4337567297 14.6969384567 1.0 
290 5.0 15.5884572681 0.0 1.0 
291 4.0 16.1658075373 1.63299316186 1.0 
292 5.0 15.5884572681 3.26598632371 1.0 
293 4.0 16.1658075373 4.89897948557 1.0 
294 5.0 15.5884572681 6.53197264742 1.0 
295 4.0 16.1658075373 8.16496580928 1.0 
296 5.0 15.5884572681 9.79795897113 1.0 
297 4.0 16.1658075373 11.430952133 1.0 
298 5.0 15.5884572681 13.0639452948 1.0 
299 4.0 16.1658075373 14.6969384567 1.0 
300 6.0 0.0 0.0 1.0 
301 7.0 0.57735026919 1.63299316186 1.0 
302 6.0 0.0 3.26598632371 1.0 
303 7.0 0.57735026919 4.89897948557 1.0 
304 6.0 0.0 6.53197264742 1.0 
305 7.0 0.57735026919 8.16496580928 1.0 
306 6.0 0.0 9.79795897113 1.0 
307 7.0 0.57735026919 11.430952133 1.0 
308 6.0 0.0 13.0639452948 1.0 
309 7.0 0.57735026919 14.6969384567 1.0 
310 7.0 1.73205080757 0.0 1.0 
311 6.0 2.30940107676 1.63299316186 1.0 
312 7.0 1.73205080757 3.26598632371 1.0 
313 6.0 2.30940107676 4.89897948557 1.0 
314 7.0 1.73205080757 6.53197264742 1.0 
315 6.0 2.30940107676 8.16496580928 1.0 
316 7.0 1.73205080757 9.79795897113 1.0 
317 6.0 2.30940107676 11.430952133 1.0 
318 7.0 1.73205080757 13.0639452948 1.0 
319 6.0 2.30940107676 14.6969384567 1.0 
320 6.0 3.46410161514 0.0 1.0 
321 7.0 4.04145188433 1.63299316186 1.0 
322 6.0 3.46410161514 3.26598632371 1.0 
323 7.0 4.04145188433 4.89897948557 1.0 
324 6.0 3.46410161514 6.53197264742 1.0 
325 7.0 4.04145188433 8.16496580928 1.0 
326 6.0 3.46410161514 9.79795897113 1.0 
327 7.0 4.04145188433 11.430952133 1.0 
328 6.0 3.46410161514 13.0639452948 1.0 
329 7.0 4.04145188433 14.6969384567 1.0 
330 7.0 5.19615242271 0.0 1.0 
331 6.0 5.7735026919 1.63299316186 1.0 
332 7.0 5.19615242271 3.26598632371 1.0 
333 6.0 5.7735026919 4.89897948557 1.0 
334 7.0 5.19615242271 6.53197264742 1.0 
335 6.0 5.7735026919 8.16496580928 1.0 
336 7.0 5.19615242271 9.79795897113 1.0 
337 6.0 5.7735026919 11.430952133 1.0 
338 7.0 5.19615242271 13.0639452948 1.0 
339 6.0 5.7735026919 14.6969384567 1.0 
340 6.0 6.92820323028 0.0 1.0 
341 7.0 7.50555349947 1.63299316186 1.0 
342 6.0 6.92820323028 3.26598632371 1.0 
343 7.0 7.50555349947 4.89897948557 1.0 
344 6.0 6.92820323028 6.53197264742 1.0 
345 7.0 7.50555349947 8.16496580928 1.0 
346 6.0 6.92820323028 9.79795897113 1.0 
347 7.0 7.50555349947 11.430952133 1.0 
348 6.0 6.92820323028 13.0639452948 1.0 
349 7.0 7.50555349947 14.6969384567 1.0 
350 7.0 8.66025403784 0.0 1.0 
351 6.0 9.23760430703 1.63299316186 1.0 
352 7.0 8.66025403784 3.26598632371 1.0 
353 6.0 9.23760430703 4.89897948557 1.0 
354 7.0 8.66025403784 6.53197264742 1.0 
355 6.0 9.23760430703 8.16496580928 1.0 
356 7.0 8.66025403784 9.79795897113 1.0 
357 6.0 9.23760430703 11.430952133 1.0 
358 7.0 8.66025403784 13.0639452948 1.0 
359 6.0 9.23760430703 14.6969384567 1.0 
360 6.0 10.3923048454 0.0 1.0 
361 7.0 10.9696551146 1.63299316186 1.0 
362 6.0 10.3923048454 3.26598632371 1.0 
363 7.0 10.9696551146 4.89897948557 1.0 
364 6.0 10.3923048454 6.53197264742 1.0 
365 7.0 10.9696551146 8.16496580928 1.0 
366 6.0 10.3923048454 9.79795897113 1.0 
367 7.0 10.9696551146 11.430952133 1.0 
368 6.0 10.3923048454 13.0639452948 1.0 
369 7.0 10.9696551146 14.6969384567 1.0 
370 7.0 12.124355653 0.0 1.0 
371 6.0 12.7017059222 1.63299316186 1.0 
372 7.0 12.124355653 3.26598632371 1.0 
373 6.0 12.7017059222 4.89897948557 1.0 
374 7.0 12.124355653 6.53197264742 1.0 
375 6.0 12.7017059222 8.16496580928 1.0 
376 7.0 12.124355653 9.79795897113 1.0 
377 6.0 12.7017059222 11.430952133 1.0 
378 7.0 12.124355653 13.0639452948 1.0 
379 6.0 12.7017059222 14.6969384567 1.0 
380 6.0 13.8564064606 0.0 1.0 
381 7.0 14.4337567297 1.63299316186 1.0 
382 6.0 13.8564064606 3.26598632371 1.0 
383 7.0 14.4337567297 4.89897948557 1.0 
384 6.0 13.8564064606 6.53197264742 1.0 
385 7.0 14.4337567297 8.16496580928 1.0 
386 6.0 13.8564064606 9.79795897113 1.0 
387 7.0 14.4337567297 11.430952133 1.0 
388 6.0 13.8564064606 13.0639452948 1.0 
389 7.0 14.4337567297 14.6969384567 1.0 
390 7.0 15.5884572681 0.0 1.0 
391 6.0 16.1658075373 1.63299316186 1.0 
392 7.0 15.5884572681 3.26598632371 1.0 
393 6.0 16.1658075373 4.89897948557 1.0 
394 7.0 15.5884572681 6.53197264742 1.0 
395 6.0 16.1658075373 8.16496580928 1.0 
396 7.0 15.5884572681 9.79795897113 1.0 
397 6.0 16.1658075373 11.430952133 1.0 
398 7.0 15.5884572681 13.0639452948 1.0 
399 6.0 16.1658075373 14.6969384567 1.0 
400 8.0 0.0 0.0 1.0 
401 9.0 0.57735026919 1.63299316186 1.0 
402 8.0 0.0 3.26598632371 1.0 
403 9.0 0.57735026919 4.89897948557 1.0 
404 8.0 0.0 6.53197264742 1.0 
405 9.0 0.57735026919 8.16496580928 1.0 
406 8.0 0.0 9.79795897113 1.0 
407 9.0 0.57735026919 11.430952133 1.0 
408 8.0 0.0 13.0639452948 1.0 
409 9.0 0.57735026919 14.6969384567 1.0 
410 9.0 1.73205080757 0.0 1.0 
411 8.0 2.30940107676 1.63299316186 1.0 
412 9.0 1.73205080757 3.26598632371 1.0 
413 8.0 2.30940107676 4.89897948557 1.0 
414 9.0 1.73205080757 6.53197264742 1.0 
415 8.0 2.30940107676 8.16496580928 1.0 
416 9.0 1.73205080757 9.79795897113 1.0 
417 8.0 2.30940107676 11.430952133 1.0 
418 9.0 1.73205080757 13.0639452948 1.0 
419 8.0 2.30940107676 14.6969384567 1.0 
420 8.0 3.46410161514 0.0 1.0 
421 9.0 4.04145188433 1.63299316186 1.0 
422 8.0 3.46410161514 3.26598632371 1.0 
423 9.0 4.04145188433 4.89897948557 1.0 
424 8.0 3.46410161514 6.53197264742 1.0 
425 9.0 4.04145188433 8.16496580928 1.0 
426 8.0 3.46410161514 9.79795897113 1.0 
427 9.0 4.04145188433 11.430952133 1.0 
428 8.0 3.46410161514 13.0639452948 1.0 
429 9.0 4.04145188433 14.6969384567 1.0 
430 9.0 5.19615242271 0.0 1.0 
431 8.0 5.7735026919 1.63299316186 1.0 
432 9.0 5.19615242271 3.26598632371 1.0 
433 8.0 5.7735026919 4.89897948557 1.0 
434 9.0 5.19615242271 6.53197264742 1.0 
435 8.0 5.7735026919 8.16496580928 1.0 
436 9.0 5.19615242271 9.79795897113 1.0 
437 8.0 5.7735026919 11.430952133 1.0 
438 9.0 5.19615242271 13.0639452948 1.0 
439 8.0 5.7735026919 14.6969384567 1.0 
440 8.0 6.92820323028 0.0 1.0 
441 9.0 7.50555349947 1.63299316186 1.0 
442 8.0 6.92820323028 3.26598632371 1.0 
443 9.0 7.50555349947 4.89897948557 1.0 
444 8.0 6.92820323028 6.53197264742 1.0 
445 9.0 7.50555349947 8.16496580928 1.0 
446 8.0 6.92820323028 9.79795897113 1.0 
447 9.0 7.50555349947 11.430952133 1.0 
448 8.0 6.92820323028 13.0639452948 1.0 
449 9.0 7.50555349947 14.6969384567 1.0 
450 9.0 8.66025403784 0.0 1.0 
451 8.0 9.23760430703 1.63299316186 1.0 
452 9.0 8.66025403784 3.26598632371 1.0 
453 8.0 9.23760430703 4.89897948557 1.0 
454 9.0 8.66025403784 6.53197264742 1.0 
455 8.0 9.23760430703 8.16496580928 1.0 
456 9.0 8.66025403784 9.79795897113 1.0 
457 8.0 9.23760430703 11.430952133 1.0 
458 9.0 8.66025403784 13.0639452948 1.0 
459 8.0 9.23760430703 14.6969384567 1.0 
460 8.0 10.3923048454 0.0 1.0 
461 9.0 10.9696551146 1.63299316186 1.0 
462 8.0 10.3923048454 3.26598632371 1.0 
463 9.0 10.9696551146 4.89897948557 1.0 
464 8.0 10.3923048454 6.53197264742 1.0 
465 9.0 10.9696551146 8.16496580928 1.0 
466 8.0 10.3923048454 9.79795897113 1.0 
467 9.0 10.9696551146 11.430952133 1.0 
468 8.0 10.3923048454 13.0639452948 1.0 
469 9.0 10.9696551146 14.6969384567 1.0 
470 9.0 12.124355653 0.0 1.0 
471 8.0 12.7017059222 1.63299316186 1.0 
472 9.0 12.124355653 3.26598632371 1.0 
473 8.0 12.7017059222 4.89897948557 1.0 
474 9.0 12.124355653 6.53197264742 1.0 
475 8.0 12.7017059222 8.16496580928 1.0 
476 9.0 12.124355653 9.79795897113 1.0 
477 8.0 12.7017059222 11.430952133 1.0 
478 9.0 12.124355653 13.0639452948 1.0 
479 8.0 12.7017059222 14.6969384567 1.0 
480 8.0 13.8564064606 0.0 1.0 
481 9.0 14.4337567297 1.63299316186 1.0 
482 8.0 13.8564064606 3.26598632371 1.0 
483 9.0 14.4337567297 4.89897948557 1.0 
484 8.0 13.8564064606 6.53197264742 1.0 
485 9.0 14.4337567297 8.16496580928 1.0 
486 8.0 13.8564064606 9.79795897113 1.0 
487 9.0 14.4337567297 11.430952133 1.0 
488 8.0 13.8564064606 13.0639452948 1.0 
489 9.0 14.4337567297 14.6969384567 1.0 
490 9.0 15.5884572681 0.0 1.0 
491 8.0 16.1658075373 1.63299316186 1.0 
492 9.0 15.5884572681 3.26598632371 1.0 
493 8.0 16.1658075373 4.89897948557 1.0 
494 9.0 15.5884572681 6.53197264742 1.0 
495 8.0 16.1658075373 8.16496580928 1.0 
496 9.0 15.5884572681 9.79795897113 1.0 
497 8.0 16.1658075373 11.430952133 1.0 
498 9.0 15.5884572681 13.0639452948 1.0 
499 8.0 16.1658075373 14.6969384567 1.0 
500 10.0 0.0 0.0 1.0 
501 11.0 0.57735026919 1.63299316186 1.0 
502 10.0 0.0 3.26598632371 1.0 
503 11.0 0.57735026919 4.89897948557 1.0 
504 10.0 0.0 6.53197264742 1.0 
505 11.0 0.57735026919 8.16496580928 1.0 
506 10.0 0.0 9.79795897113 1.0 
507 11.0 0.57735026919 11.430952133 1.0 
508 10.0 0.0 13.0639452948 1.0 
509 11.0 0.57735026919 14.6969384567 1.0 
510 11.0 1.73205080757 0.0 1.0 
511 10.0 2.30940107676 1.63299316186 1.0 
512 11.0 1.73205080757 3.26598632371 1.0 
513 10.0 2.30940107676 4.89897948557 1.0 
514 11.0 1.73205080757 6.53197264742 1.0 
515 10.0 2.30940107676 8.16496580928 1.0 
516 11.0 1.73205080757 9.79795897113 1.0 
517 10.0 2.30940107676 11.430952133 1.0 
518 11.0 1.73205080757 13.0639452948 1.0 
519 10.0 2.30940107676 14.6969384567 1.0 
520 10.0 3.46410161514 0.0 1.0 
521 11.0 4.04145188433 1.63299316186 1.0 
522 10.0 3.46410161514 3.26598632371 1.0 
523 11.0 4.04145188433 4.89897948557 1.0 
524 10.0 3.46410161514 6.53197264742 1.0 
525 11.0 4.04145188433 8.16496580928 1.0 
526 10.0 3.46410161514 9.79795897113 1.0 
527 11.0 4.04145188433 11.430952133 1.0 
528 10.0 3.46410161514 13.0639452948 1.0 
529 11.0 4.04145188433 14.6969384567 1.0 
530 11.0 5.19615242271 0.0 1.0 
531 10.0 5.7735026919 1.63299316186 1.0 
532 11.0 5.19615242271 3.26598632371 1.0 
533 10.0 5.7735026919 4.89897948557 1.0 
534 11.0 5.19615242271 6.53197264742 1.0 
535 10.0 5.7735026919 8.16496580928 1.0 
536 11.0 5.19615242271 9.79795897113 1.0 
537 10.0 5.7735026919 11.430952133 1.0 
538 11.0 5.19615242271 13.0639452948 1.0 
539 10.0 5.7735026919 14.6969384567 1.0 
540 10.0 6.92820323028 0.0 1.0 
541 11.0 7.50555349947 1.63299316186 1.0 
542 10.0 6.92820323028 3.26598632371 1.0 
543 11.0 7.50555349947 4.89897948557 1.0 
544 10.0 6.92820323028 6.53197264742 1.0 
545 11.0 7.50555349947 8.16496580928 1.0 
546 10.0 6.92820323028 9.79795897113 1.0 
547 11.0 7.50555349947 11.430952133 1.0 
548 10.0 6.92820323028 13.0639452948 1.0 
549 11.0 7.50555349947 14.6969384567 1.0 
550 11.0 8.66025403784 0.0 1.0 
551 10.0 9.23760430703 1.63299316186 1.0 
552 11.0 8.66025403784 3.26598632371 1.0 
553 10.0 9.23760430703 4.89897948557 1.0 
554 11.0 8.66025403784 6.53197264742 1.0 
555 10.0 9.23760430703 8.16496580928 1.0 
556 11.0 8.66025403784 9.79795897113 1.0 
557 10.0 9.23760430703 11.430952133 1.0 
558 11.0 8.66025403784 13.0639452948 1.0 
559 10.0 9.23760430703 14.6969384567 1.0 
560 10.0 10.3923048454 0.0 1.0 
561 11.0 10.9696551146 1.63299316186 1.0 
562 10.0 10.3923048454 3.26598632371 1.0 
563 11.0 10.9696551146 4.89897948557 1.0 
564 10.0 10.3923048454 6.53197264742 1.0 
565 11.0 10.9696551146 8.16496580928 1.0 
566 10.0 10.3923048454 9.79795897113 1.0 
567 11.0 10.9696551146 11.430952133 1.0 
568 10.0 10.3923048454 13.0639452948 1.0 
569 11.0 10.9696551146 14.6969384567 1.0 
570 11.0 12.124355653 0.0 1.0 
571 10.0 12.7017059222 1.63299316186 1.0 
572 11.0 12.124355653 3.26598632371 1.0 
573 10.0 12.7017059222 4.89897948557 1.0 
574 11.0 12.124355653 6.53197264742 1.0 
575 10.0 12.7017059222 8.16496580928 1.0 
576 11.0 12.124355653 9.79795897113 1.0 
577 10.0 12.7017059222 11.430952133 1.0 
578 11.0 12.124355653 13.0639452948 1.0 
579 10.0 12.7017059222 14.6969384567 1.0 
580 10.0 13.8564064606 0.0 1.0 
581 11.0 14.4337567297 1.63299316186 1.0 
582 10.0 13.8564064606 3.26598632371 1.0 
583 11.0 14.4337567297 4.89897948557 1.0 
584 10.0 13.8564064606 6.53197264742 1.0 
585 11.0 14.4337567297 8.16496580928 1.0 
586 10.0 13.8564064606 9.79795897113 1.0 
587 11.0 14.4337567297 11.430952133 1.0 
588 10.0 13.8564064606 13.0639452948 1.0 
589 11.0 14.4337567297 14.6969384567 1.0 
590 11.0 15.5884572681 0.0 1.0 
591 10.0 16.1658075373 1.63299316186 1.0 
592 11.0 15.5884572681 3.26598632371 1.0 
593 10.0 16.1658075373 4.89897948557 1.0 
594 11.0 15.5884572681 6.53197264742 1.0 
595 10.0 16.1658075373 8.16496580928 1.0 
596 11.0 15.5884572681 9.79795897113 1.0 
597 10.0 16.1658075373 11.430952133 1.0 
598 11.0 15.5884572681 13.0639452948 1.0 
599 10.0 16.1658075373 14.6969384567 1.0 
600 12.0 0.0 0.0 1.0 
601 13.0 0.57735026919 1.63299316186 1.0 
602 12.0 0.0 3.26598632371 1.0 
603 13.0 0.57735026919 4.89897948557 1.0 
604 12.0 0.0 6.53197264742 1.0 
605 13.0 0.57735026919 8.16496580928 1.0 
606 12.0 0.0 9.79795897113 1.0 
607 13.0 0.57735026919 11.430952133 1.0 
608 12.0 0.0 13.0639452948 1.0 
609 13.0 0.57735026919 14.6969384567 1.0 
610 13.0 1.73205080757 0.0 1.0 
611 12.0 2.30940107676 1.63299316186 1.0 
612 13.0 1.73205080757 3.26598632371 1.0 
613 12.0 2.30940107676 4.89897948557 1.0 
614 13.0 1.73205080757 6.53197264742 1.0 
615 12.0 2.30940107676 8.16496580928 1.0 
616 13.0 1.73205080757 9.79795897113 1.0 
617 12.0 2.30940107676 11.430952133 1.0 
618 13.0 1.73205080757 13.0639452948 1.0 
619 12.0 2.30940107676 14.6969384567 1.0 
620 12.0 3.46410161514 0.0 1.0 
621 13.0 4.04145188433 1.63299316186 1.0 
622 12.0 3.46410161514 3.26598632371 1.0 
623 13.0 4.04145188433 4.89897948557 1.0 
624 12.0 3.46410161514 6.53197264742 1.0 
625 13.0 4.04145188433 8.16496580928 1.0 
626 12.0 3.46410161514 9.79795897113 1.0 
627 13.0 4.04145188433 11.430952133 1.0 
628 12.0 3.46410161514 13.0639452948 1.0 
629 13.0 4.04145188433 14.6969384567 1.0 
630 13.0 5.19615242271 0.0 1.0 
631 12.0 5.7735026919 1.63299316186 1.0 
632 13.0 5.19615242271 3.26598632371 1.0 
633 12.0 5.7735026919 4.89897948557 1.0 
634 13.0 5.19615242271 6.53197264742 1.0 
635 12.0 5.7735026919 8.16496580928 1.0 
636 13.0 5.19615242271 9.79795897113 1.0 
637 12.0 5.7735026919 11.430952133 1.0 
638 13.0 5.19615242271 13.0639452948 1.0 
639 12.0 5.7735026919 14.6969384567 1.0 
640 12.0 6.92820323028 0.0 1.0 
641 13.0 7.50555349947 1.63299316186 1.0 
642 12.0 6.92820323028 3.26598632371 1.0 
643 13.0 7.50555349947 4.89897948557 1.0 
644 12.0 6.92820323028 6.53197264742 1.0 
645 13.0 7.50555349947 8.16496580928 1.0 
646 12.0 6.92820323028 9.79795897113 1.0 
647 13.0 7.50555349947 11.430952133 1.0 
648 12.0 6.92820323028 13.0639452948 1.0 
649 13.0 7.50555349947 14.6969384567 1.0 
650 13.0 8.66025403784 0.0 1.0 
651 12.0 9.23760430703 1.63299316186 1.0 
652 13.0 8.66025403784 3.26598632371 1.0 
653 12.0 9.23760430703 4.89897948557 1.0 
654 13.0 8.66025403784 6.53197264742 1.0 
655 12.0 9.23760430703 8.16496580928 1.0 
656 13.0 8.66025403784 9.79795897113 1.0 
657 12.0 9.23760430703 11.430952133 1.0 
658 13.0 8.66025403784 13.0639452948 1.0 
659 12.0 9.23760430703 14.6969384567 1.0 
660 12.0 10.3923048454 0.0 1.0 
661 13.0 10.9696551146 1.63299316186 1.0 
662 12.0 10.3923048454 3.26598632371 1.0 
663 13.0 10.9696551146 4.89897948557 1.0 
664 12.0 10.3923048454 6.53197264742 1.0 
665 13.0 10.9696551146 8.16496580928 1.0 
666 12.0 10.3923048454 9.79795897113 1.0 
667 13.0 10.9696551146 11.430952133 1.0 
668 12.0 10.3923048454 13.0639452948 1.0 
669 13.0 10.9696551146 14.6969384567 1.0 
670 13.0 12.124355653 0.0 1.0 
671 12.0 12.7017059222 1.63299316186 1.0 
672 13.0 12.124355653 3.26598632371 1.0 
673 12.0 12.7017059222 4.89897948557 1.0 
674 13.0 12.124355653 6.53197264742 1.0 
675 12.0 12.7017059222 8.16496580928 1.0 
676 13.0 12.124355653 9.79795897113 1.0 
677 12.0 12.7017059222 11.430952133 1.0 
678 13.0 12.124355653 13.0639452948 1.0 
679 12.0 12.7017059222 14.6969384567 1.0 
680 12.0 13.8564064606 0.0 1.0 
681 13.0 14.4337567297 1.63299316186 1.0 
682 12.0 13.8564064606 3.26598632371 1.0 
683 13.0 14.4337567297 4.89897948557 1.0 
684 12.0 13.8564064606 6.53197264742 1.0 
685 13.0 14.4337567297 8.16496580928 1.0 
686 12.0 13.8564064606 9.79795897113 1.0 
687 13.0 14.4337567297 11.430952133 1.0 
688 12.0 13.8564064606 13.0639452948 1.0 
689 13.0 14.4337567297 14.6969384567 1.0 
690 13.0 15.5884572681 0.0 1.0 
691 12.0 16.1658075373 1.63299316186 1.0 
692 13.0 15.5884572681 3.26598632371 1.0 
693 12.0 16.1658075373 4.89897948557 1.0 
694 13.0 15.5884572681 6.53197264742 1.0 
695 12.0 16.1658075373 8.16496580928 1.0 
696 13.0 15.5884572681 9.79795897113 1.0 
697 12.0 16.1658075373 11.430952133 1.0 
698 13.0 15.5884572681 13.0639452948 1.0 
699 12.0 16.1658075373 14.6969384567 1.0 
700 14.0 0.0 0.0 1.0 
701 15.0 0.57735026919 1.63299316186 1.0 
702 14.0 0.0 3.26598632371 1.0 
703 15.0 0.57735026919 4.89897948557 1.0 
704 14.0 0.0 6.53197264742 1.0 
705 15.0 0.57735026919 8.16496580928 1.0 
706 14.0 0.0 9.79795897113 1.0 
707 15.0 0.57735026919 11.430952133 1.0 
708 14.0 0.0 13.0639452948 1.0 
709 15.0 0.57735026919 14.6969384567 1.0 
710 15.0 1.73205080757 0.0 1.0 
711 14.0 2.30940107676 1.63299316186 1.0 
712 15.0 1.73205080757 3.26598632371 1.0 
713 14.0 2.30940107676 4.89897948557 1.0 
714 15.0 1.73205080757 6.53197264742 1.0 
715 14.0 2.30940107676 8.16496580928 1.0 
716 15.0 1.73205080757 9.79795897113 1.0 
717 14.0 2.30940107676 11.430952133 1.0 
718 15.0 1.73205080757 13.0639452948 1.0 
719 14.0 2.30940107676 14.6969384567 1.0 
720 14.0 3.46410161514 0.0 1.0 
721 15.0 4.04145188433 1.63299316186 1.0 
722 14.0 3.46410161514 3.26598632371 1.0 
723 15.0 4.04145188433 4.89897948557 1.0 
724 14.0 3.46410161514 6.53197264742 1.0 
725 15.0 4.04145188433 8.16496580928 1.0 
726 14.0 3.46410161514 9.79795897113 1.0 
727 15.0 4.04145188433 11.430952133 1.0 
728 14.0 3.46410161514 13.0639452948 1.0 
729 15.0 4.04145188433 14.6969384567 1.0 
730 15.0 5.19615242271 0.0 1.0 
731 14.0 5.7735026919 1.63299316186 1.0 
732 15.0 5.19615242271 3.26598632371 1.0 
733 14.0 5.7735026919 4.89897948557 1.0 
734 15.0 5.19615242271 6.53197264742 1.0 
735 14.0 5.7735026919 8.16496580928 1.0 
736 15.0 5.19615242271 9.79795897113 1.0 
737 14.0 5.7735026919 11.430952133 1.0 
738 15.0 5.19615242271 13.0639452948 1.0 
739 14.0 5.7735026919 14.6969384567 1.0 
740 14.0 6.92820323028 0.0 1.0 
741 15.0 7.50555349947 1.63299316186 1.0 
742 14.0 6.92820323028 3.26598632371 1.0 
743 15.0 7.50555349947 4.89897948557 1.0 
744 14.0 6.92820323028 6.53197264742 1.0 
745 15.0 7.50555349947 8.16496580928 1.0 
746 14.0 6.92820323028 9.79795897113 1.0 
747 15.0 7.50555349947 11.430952133 1.0 
748 14.0 6.92820323028 13.0639452948 1.0 
749 15.0 7.50555349947 14.6969384567 1.0 
750 15.0 8.66025403784 0.0 1.0 
751 14.0 9.23760430703 1.63299316186 1.0 
752 15.0 8.66025403784 3.26598632371 1.0 
753 14.0 9.23760430703 4.89897948557 1.0 
754 15.0 8.66025403784 6.53197264742 1.0 
755 14.0 9.23760430703 8.16496580928 1.0 